/*--------------------------------*- C++ -*----------------------------------*\
| =========                 |                                                 |
| \\      /  F ield         | OpenFOAM: The Open Source CFD Toolbox           |
|  \\    /   O peration     | Version:  v2012                                 |
|   \\  /    A nd           | Website:  www.openfoam.com                      |
|    \\/     M anipulation  |                                                 |
\*---------------------------------------------------------------------------*/
FoamFile
{
    version     2.0;
    format      ascii;
    class       volScalarField;
    location    "0.65";
    object      p;
}
// * * * * * * * * * * * * * * * * * * * * * * * * * * * * * * * * * * * * * //

dimensions      [0 2 -2 0 0 0 0];


internalField   nonuniform List<scalar> 
1600
(
-1.35342e-08
-4.75927
-7.11116
-8.08375
-8.59958
-8.91444
-9.11695
-9.25664
-9.35979
-9.43977
-9.50397
-9.55689
-9.6014
-9.63949
-9.67254
-9.70156
-9.72733
-9.75041
-9.77127
-9.79026
-9.80769
-9.82378
-9.83875
-9.85276
-9.86596
-9.87848
-9.89043
-9.90192
-9.91305
-9.92392
-9.93461
-9.94523
-9.95585
-9.96654
-9.97738
-9.98836
-9.99942
-10.0105
-10.0213
-10.0283
-3.82628
-5.73079
-7.04157
-7.81176
-8.32499
-8.68005
-8.92726
-9.10483
-9.23742
-9.33976
-9.421
-9.48707
-9.54191
-9.58824
-9.62798
-9.6625
-9.69285
-9.71981
-9.74397
-9.76582
-9.78573
-9.80401
-9.82091
-9.83665
-9.85141
-9.86535
-9.87859
-9.89127
-9.9035
-9.91537
-9.92699
-9.93844
-9.9498
-9.96112
-9.97247
-9.98382
-9.9951
-10.0064
-10.0178
-10.0256
-6.08905
-6.68321
-7.33341
-7.86794
-8.28516
-8.60279
-8.84197
-9.02375
-9.16444
-9.27543
-9.36469
-9.43778
-9.49865
-9.55011
-9.5942
-9.63245
-9.666
-9.69572
-9.72229
-9.74625
-9.76802
-9.78796
-9.80635
-9.82343
-9.8394
-9.85444
-9.8687
-9.88231
-9.89539
-9.90806
-9.9204
-9.93251
-9.94446
-9.95631
-9.96812
-9.97988
-9.99155
-10.0034
-10.0157
-10.0241
-7.24293
-7.38984
-7.71502
-8.06405
-8.37031
-8.62442
-8.83068
-8.9969
-9.13121
-9.2406
-9.33064
-9.40563
-9.46882
-9.52268
-9.56911
-9.60954
-9.64509
-9.67662
-9.70484
-9.73029
-9.75342
-9.77458
-9.79409
-9.8122
-9.82911
-9.84502
-9.86008
-9.87443
-9.88819
-9.90149
-9.91441
-9.92706
-9.9395
-9.95181
-9.96406
-9.97625
-9.98838
-10.0008
-10.0141
-10.0231
-7.90975
-7.90083
-8.0556
-8.27392
-8.48953
-8.68456
-8.85441
-8.99907
-9.12108
-9.22383
-9.31065
-9.38442
-9.44756
-9.50203
-9.54941
-9.59096
-9.62768
-9.66039
-9.68974
-9.71626
-9.74041
-9.76253
-9.78293
-9.80186
-9.81955
-9.83618
-9.85191
-9.86689
-9.88124
-9.89507
-9.90851
-9.92162
-9.93451
-9.94724
-9.95991
-9.97253
-9.98515
-9.99821
-10.0123
-10.0217
-8.32781
-8.26967
-8.33545
-8.46821
-8.61679
-8.76305
-8.89906
-9.02103
-9.12825
-9.2216
-9.30261
-9.37297
-9.43423
-9.48783
-9.53497
-9.57668
-9.61381
-9.64707
-9.67704
-9.70424
-9.72905
-9.75184
-9.77289
-9.79245
-9.81074
-9.82793
-9.8442
-9.85969
-9.87452
-9.88881
-9.90267
-9.91619
-9.92946
-9.94257
-9.95561
-9.96864
-9.9817
-9.99533
-10.0102
-10.0198
-8.60387
-8.53769
-8.55968
-8.6392
-8.74045
-8.84853
-8.95537
-9.05597
-9.14796
-9.2307
-9.30445
-9.36993
-9.428
-9.47957
-9.5255
-9.56655
-9.6034
-9.63664
-9.66678
-9.69424
-9.71939
-9.74256
-9.76402
-9.784
-9.8027
-9.82031
-9.83698
-9.85285
-9.86805
-9.8827
-9.89689
-9.91074
-9.92432
-9.93775
-9.95111
-9.96448
-9.97792
-9.99205
-10.0075
-10.0173
-8.79721
-8.7367
-8.73809
-8.78516
-8.85385
-8.93316
-9.0162
-9.09803
-9.1757
-9.24777
-9.31371
-9.37354
-9.4276
-9.47635
-9.52034
-9.5601
-9.59611
-9.62886
-9.65873
-9.68611
-9.7113
-9.73459
-9.75623
-9.77643
-9.79537
-9.81324
-9.83017
-9.84631
-9.86177
-9.87667
-9.89111
-9.9052
-9.91903
-9.93269
-9.94631
-9.95995
-9.9737
-9.98821
-10.0042
-10.0139
-8.94024
-8.88854
-8.88071
-8.90809
-8.95471
-9.01284
-9.07708
-9.14313
-9.20804
-9.27007
-9.32825
-9.38219
-9.43181
-9.47726
-9.51882
-9.55681
-9.59156
-9.62342
-9.65269
-9.67968
-9.70464
-9.72781
-9.74942
-9.76965
-9.78867
-9.80665
-9.82371
-9.83999
-9.85561
-9.87066
-9.88526
-9.89951
-9.91349
-9.92733
-9.94112
-9.95494
-9.9689
-9.98369
-9.99998
-10.0097
-9.05071
-9.00747
-8.99596
-9.01144
-9.04316
-9.08586
-9.13553
-9.18865
-9.24258
-9.29554
-9.3464
-9.39451
-9.43957
-9.48148
-9.52031
-9.55621
-9.58938
-9.62004
-9.64843
-9.67477
-9.69926
-9.72211
-9.7435
-9.76359
-9.78253
-9.80048
-9.81754
-9.83385
-9.84951
-9.86462
-9.87929
-9.89361
-9.90767
-9.92158
-9.93546
-9.94939
-9.96346
-9.9784
-9.99487
-10.0043
-9.13889
-9.10286
-9.09036
-9.09863
-9.12028
-9.15181
-9.1903
-9.23299
-9.27765
-9.32264
-9.36681
-9.40941
-9.44998
-9.48828
-9.52422
-9.55783
-9.5892
-9.61845
-9.64573
-9.6712
-9.69503
-9.71737
-9.73837
-9.75816
-9.77689
-9.79467
-9.81162
-9.82784
-9.84344
-9.85851
-9.87315
-9.88745
-9.9015
-9.91541
-9.92929
-9.94321
-9.95729
-9.97227
-9.98877
-9.99793
-9.21109
-9.18098
-9.16873
-9.17265
-9.18748
-9.2109
-9.24085
-9.27522
-9.31217
-9.35028
-9.38848
-9.42598
-9.46228
-9.49703
-9.53005
-9.56127
-9.59069
-9.61837
-9.64438
-9.66882
-9.69182
-9.71349
-9.73395
-9.75331
-9.77169
-9.78918
-9.8059
-9.82193
-9.83736
-9.8523
-9.86681
-9.881
-9.89495
-9.90877
-9.92255
-9.93638
-9.95037
-9.96526
-9.98164
-9.99037
-9.27143
-9.24612
-9.23467
-9.23597
-9.24614
-9.26367
-9.28711
-9.31486
-9.34547
-9.37772
-9.41066
-9.44355
-9.47586
-9.5072
-9.53735
-9.56616
-9.59357
-9.61957
-9.64418
-9.66748
-9.68951
-9.71039
-9.73018
-9.74898
-9.76689
-9.78398
-9.80035
-9.81608
-9.83126
-9.84596
-9.86026
-9.87425
-9.88801
-9.90164
-9.91523
-9.92887
-9.94266
-9.95735
-9.97347
-9.98166
-9.3227
-9.30128
-9.29084
-9.29057
-9.29756
-9.31078
-9.32925
-9.35175
-9.37715
-9.40445
-9.43281
-9.46158
-9.49023
-9.51838
-9.54577
-9.5722
-9.59758
-9.62184
-9.64499
-9.66703
-9.688
-9.70796
-9.72698
-9.74512
-9.76244
-9.77904
-9.79496
-9.8103
-9.82512
-9.83949
-9.85349
-9.86719
-9.88067
-9.89403
-9.90734
-9.92069
-9.93418
-9.94856
-9.96428
-9.97181
-9.36686
-9.34863
-9.33923
-9.33806
-9.34284
-9.3529
-9.36754
-9.38588
-9.40702
-9.43015
-9.45457
-9.47969
-9.50503
-9.53022
-9.55498
-9.57911
-9.60248
-9.625
-9.64663
-9.66735
-9.68719
-9.70616
-9.72431
-9.74168
-9.75834
-9.77433
-9.78973
-9.80458
-9.81895
-9.83291
-9.84652
-9.85984
-9.87296
-9.88595
-9.8989
-9.91187
-9.92495
-9.9389
-9.9541
-9.96088
-9.40535
-9.38974
-9.38135
-9.37968
-9.38292
-9.39064
-9.40234
-9.41737
-9.43503
-9.45467
-9.47569
-9.4976
-9.51997
-9.54244
-9.56475
-9.58668
-9.60809
-9.62888
-9.64898
-9.66835
-9.68699
-9.7049
-9.72211
-9.73865
-9.75455
-9.76987
-9.78464
-9.79892
-9.81277
-9.82623
-9.83936
-9.85223
-9.8649
-9.87744
-9.88993
-9.90243
-9.91502
-9.92845
-9.943
-9.94894
-9.43926
-9.42582
-9.41835
-9.41644
-9.41861
-9.42457
-9.434
-9.44638
-9.46119
-9.47789
-9.49602
-9.51512
-9.53483
-9.55483
-9.57486
-9.59471
-9.61425
-9.63334
-9.65192
-9.66992
-9.68734
-9.70415
-9.72036
-9.736
-9.75108
-9.76564
-9.77972
-9.79335
-9.80659
-9.81948
-9.83206
-9.84439
-9.85653
-9.86855
-9.88051
-9.89245
-9.90446
-9.91727
-9.93107
-9.93609
-9.46939
-9.45777
-9.45113
-9.44914
-9.45056
-9.45521
-9.46285
-9.47311
-9.48557
-9.49982
-9.51545
-9.53211
-9.54946
-9.56722
-9.58515
-9.60307
-9.62081
-9.63827
-9.65535
-9.67199
-9.68816
-9.70384
-9.71902
-9.7337
-9.7479
-9.76165
-9.77497
-9.7879
-9.80046
-9.8127
-9.82466
-9.83638
-9.84792
-9.85934
-9.87068
-9.882
-9.89335
-9.90546
-9.9184
-9.92245
-9.49638
-9.4863
-9.48041
-9.47843
-9.47932
-9.48297
-9.48921
-9.49775
-9.50828
-9.52046
-9.53397
-9.54849
-9.56375
-9.57949
-9.59551
-9.61161
-9.62767
-9.64355
-9.65918
-9.67448
-9.68941
-9.70393
-9.71805
-9.73174
-9.74503
-9.75791
-9.77042
-9.78257
-9.79439
-9.80593
-9.8172
-9.82825
-9.83912
-9.84987
-9.86054
-9.87115
-9.88178
-9.89311
-9.90513
-9.90813
-9.52075
-9.51197
-9.50674
-9.50483
-9.50536
-9.50824
-9.51336
-9.52052
-9.52945
-9.53988
-9.55156
-9.56422
-9.57763
-9.59156
-9.60582
-9.62026
-9.63473
-9.64912
-9.66334
-9.67732
-9.69102
-9.70439
-9.71743
-9.73011
-9.74244
-9.75442
-9.76607
-9.7774
-9.78843
-9.7992
-9.80973
-9.82005
-9.8302
-9.84022
-9.85015
-9.86
-9.86984
-9.88033
-9.89135
-9.89329
-9.5429
-9.53522
-9.53059
-9.52878
-9.52905
-9.53134
-9.53557
-9.54159
-9.54918
-9.55814
-9.56825
-9.57929
-9.59105
-9.60336
-9.61603
-9.62892
-9.64191
-9.65488
-9.66776
-9.68046
-9.69295
-9.70518
-9.71713
-9.72879
-9.74014
-9.75118
-9.76194
-9.77241
-9.78261
-9.79257
-9.80231
-9.81185
-9.82122
-9.83046
-9.83959
-9.84864
-9.85763
-9.86724
-9.87721
-9.87805
-9.56316
-9.55644
-9.55233
-9.55064
-9.55073
-9.55255
-9.55606
-9.56114
-9.56762
-9.57532
-9.58407
-9.59369
-9.60401
-9.61485
-9.62607
-9.63755
-9.64915
-9.66079
-9.67238
-9.68386
-9.69517
-9.70627
-9.71714
-9.72776
-9.73812
-9.74821
-9.75804
-9.76762
-9.77696
-9.78607
-9.79497
-9.80369
-9.81224
-9.82065
-9.82896
-9.83714
-9.84526
-9.85393
-9.86282
-9.86255
-9.5818
-9.5759
-9.57226
-9.5707
-9.57066
-9.57212
-9.57504
-9.57934
-9.58487
-9.5915
-9.59908
-9.60746
-9.61648
-9.62602
-9.63592
-9.64609
-9.65641
-9.6668
-9.67717
-9.68746
-9.69762
-9.70762
-9.71743
-9.72702
-9.73638
-9.7455
-9.7544
-9.76306
-9.7715
-9.77973
-9.78777
-9.79563
-9.80332
-9.81088
-9.81831
-9.82561
-9.83281
-9.84052
-9.8483
-9.84692
-9.59905
-9.59387
-9.59064
-9.5892
-9.58908
-9.59025
-9.59269
-9.59633
-9.60107
-9.60677
-9.61333
-9.62062
-9.62849
-9.63685
-9.64556
-9.65453
-9.66366
-9.67286
-9.68208
-9.69124
-9.7003
-9.70922
-9.71797
-9.72654
-9.7349
-9.74306
-9.751
-9.75873
-9.76626
-9.77359
-9.78074
-9.78771
-9.79452
-9.80118
-9.80772
-9.8141
-9.82037
-9.8271
-9.83375
-9.83128
-9.61511
-9.61056
-9.60769
-9.60638
-9.60619
-9.60712
-9.60917
-9.61226
-9.61631
-9.62122
-9.62688
-9.6332
-9.64006
-9.64735
-9.65498
-9.66284
-9.67086
-9.67896
-9.68708
-9.69516
-9.70316
-9.71103
-9.71876
-9.72632
-9.73369
-9.74088
-9.74786
-9.75466
-9.76126
-9.76767
-9.77391
-9.77997
-9.78588
-9.79164
-9.79725
-9.8027
-9.80802
-9.81376
-9.81928
-9.81574
-9.63014
-9.62614
-9.62359
-9.62239
-9.62217
-9.62291
-9.62462
-9.62724
-9.6307
-9.63491
-9.6398
-9.64526
-9.6512
-9.65754
-9.66417
-9.67102
-9.67802
-9.68508
-9.69217
-9.69922
-9.70619
-9.71305
-9.71978
-9.72634
-9.73274
-9.73896
-9.74499
-9.75084
-9.7565
-9.76199
-9.76731
-9.77245
-9.77744
-9.78227
-9.78696
-9.79146
-9.79582
-9.80057
-9.80497
-9.80039
-9.64429
-9.64076
-9.6385
-9.6374
-9.63715
-9.63774
-9.63917
-9.64138
-9.64433
-9.64794
-9.65214
-9.65684
-9.66196
-9.66743
-9.67316
-9.67907
-9.68511
-9.69121
-9.69732
-9.70338
-9.70938
-9.71526
-9.72101
-9.7266
-9.73204
-9.7373
-9.74238
-9.74729
-9.75201
-9.75657
-9.76096
-9.76518
-9.76924
-9.77314
-9.77689
-9.78044
-9.78384
-9.7876
-9.79089
-9.7853
-9.65766
-9.65455
-9.65255
-9.65155
-9.65128
-9.65174
-9.65293
-9.6548
-9.65731
-9.66038
-9.66397
-9.66799
-9.67238
-9.67705
-9.68195
-9.687
-9.69215
-9.69734
-9.70252
-9.70766
-9.7127
-9.71764
-9.72244
-9.72709
-9.73158
-9.73589
-9.74004
-9.744
-9.7478
-9.75142
-9.75487
-9.75816
-9.76129
-9.76426
-9.76707
-9.76968
-9.77212
-9.7749
-9.77709
-9.77053
-9.67038
-9.66764
-9.66585
-9.66495
-9.66467
-9.66502
-9.666
-9.66758
-9.6697
-9.67231
-9.67535
-9.67876
-9.68248
-9.68644
-9.69058
-9.69483
-9.69915
-9.70348
-9.70779
-9.71203
-9.71617
-9.7202
-9.72408
-9.7278
-9.73136
-9.73474
-9.73795
-9.74099
-9.74385
-9.74654
-9.74907
-9.75143
-9.75363
-9.75567
-9.75754
-9.75921
-9.7607
-9.76251
-9.76364
-9.75614
-9.68254
-9.68011
-9.67852
-9.67769
-9.67741
-9.67768
-9.67848
-9.6798
-9.68158
-9.68378
-9.68634
-9.68921
-9.69233
-9.69563
-9.69906
-9.70257
-9.70612
-9.70964
-9.71312
-9.71651
-9.71978
-9.72292
-9.72591
-9.72873
-9.73137
-9.73384
-9.73613
-9.73825
-9.74019
-9.74195
-9.74355
-9.74499
-9.74626
-9.74737
-9.74831
-9.74904
-9.7496
-9.75046
-9.75054
-9.74215
-9.69421
-9.69205
-9.69062
-9.68987
-9.68959
-9.68979
-9.69045
-9.69155
-9.69304
-9.69488
-9.69701
-9.69939
-9.70195
-9.70465
-9.70744
-9.71026
-9.71307
-9.71584
-9.71852
-9.7211
-9.72353
-9.72582
-9.72793
-9.72987
-9.73162
-9.73319
-9.73457
-9.73578
-9.7368
-9.73765
-9.73833
-9.73884
-9.73919
-9.73938
-9.7394
-9.73921
-9.73884
-9.73876
-9.73783
-9.72858
-9.70547
-9.70353
-9.70224
-9.70155
-9.70128
-9.70143
-9.70198
-9.70289
-9.70413
-9.70565
-9.70741
-9.70934
-9.71141
-9.71356
-9.71574
-9.71792
-9.72005
-9.72209
-9.72402
-9.72581
-9.72744
-9.72889
-9.73016
-9.73123
-9.73211
-9.73279
-9.73327
-9.73357
-9.73369
-9.73362
-9.73339
-9.73299
-9.73243
-9.7317
-9.73081
-9.7297
-9.72843
-9.72744
-9.72552
-9.71544
-9.71636
-9.7146
-9.71343
-9.7128
-9.71255
-9.71267
-9.71313
-9.7139
-9.71493
-9.71618
-9.7176
-9.71914
-9.72075
-9.72239
-9.72402
-9.72559
-9.72707
-9.72842
-9.72963
-9.73066
-9.73151
-9.73216
-9.73259
-9.73282
-9.73283
-9.73263
-9.73223
-9.73163
-9.73085
-9.72988
-9.72874
-9.72743
-9.72596
-9.72433
-9.72253
-9.72053
-9.71837
-9.71648
-9.7136
-9.70272
-9.72694
-9.7253
-9.72422
-9.72366
-9.72345
-9.72356
-9.72397
-9.72463
-9.72549
-9.72651
-9.72764
-9.72883
-9.73003
-9.73121
-9.73231
-9.73331
-9.73418
-9.73487
-9.73538
-9.73569
-9.73577
-9.73563
-9.73525
-9.73464
-9.7338
-9.73273
-9.73145
-9.72996
-9.72828
-9.72641
-9.72436
-9.72215
-9.71978
-9.71725
-9.71456
-9.71167
-9.70864
-9.70588
-9.70207
-9.69042
-9.73721
-9.73564
-9.73465
-9.73417
-9.73403
-9.73417
-9.73456
-9.73515
-9.73589
-9.73672
-9.7376
-9.73848
-9.73931
-9.74006
-9.74068
-9.74114
-9.74141
-9.74148
-9.74131
-9.7409
-9.74024
-9.73932
-9.73814
-9.7367
-9.73502
-9.73309
-9.73093
-9.72855
-9.72597
-9.7232
-9.72025
-9.71714
-9.71387
-9.71045
-9.70688
-9.70312
-9.69924
-9.69563
-9.69091
-9.67853
-9.74718
-9.74562
-9.74471
-9.74434
-9.74429
-9.74451
-9.74493
-9.74551
-9.74617
-9.74686
-9.74753
-9.74813
-9.74863
-9.74898
-9.74914
-9.74909
-9.74881
-9.74826
-9.74744
-9.74633
-9.74494
-9.74325
-9.74127
-9.73902
-9.73649
-9.7337
-9.73067
-9.7274
-9.72393
-9.72025
-9.7164
-9.71239
-9.70822
-9.70392
-9.69947
-9.69486
-9.69014
-9.6857
-9.68014
-9.66705
-9.75676
-9.75516
-9.75433
-9.75412
-9.75424
-9.75459
-9.7551
-9.75571
-9.75634
-9.75693
-9.75744
-9.75781
-9.75801
-9.75799
-9.75773
-9.7572
-9.75637
-9.75524
-9.75378
-9.75199
-9.74987
-9.74743
-9.74467
-9.74159
-9.73822
-9.73458
-9.73067
-9.72652
-9.72215
-9.71757
-9.71282
-9.7079
-9.70284
-9.69766
-9.69235
-9.68689
-9.68136
-9.67615
-9.66977
-9.65603
-9.76592
-9.76428
-9.76363
-9.76369
-9.76407
-9.76465
-9.76533
-9.76604
-9.7667
-9.76725
-9.76765
-9.76783
-9.76776
-9.76741
-9.76675
-9.76575
-9.7644
-9.76268
-9.76059
-9.75812
-9.75528
-9.75207
-9.74851
-9.7446
-9.74038
-9.73585
-9.73105
-9.72599
-9.7207
-9.7152
-9.70952
-9.70368
-9.6977
-9.69161
-9.68542
-9.67911
-9.67278
-9.66681
-9.65966
-9.64526
-9.77446
-9.77315
-9.77302
-9.77361
-9.77445
-9.7754
-9.77637
-9.77728
-9.77804
-9.7786
-9.77891
-9.77892
-9.77861
-9.77792
-9.77684
-9.77536
-9.77344
-9.7711
-9.76831
-9.7651
-9.76146
-9.75741
-9.75296
-9.74815
-9.74297
-9.73748
-9.73168
-9.72561
-9.7193
-9.71277
-9.70607
-9.6992
-9.69221
-9.68513
-9.67797
-9.67074
-9.66356
-9.6568
-9.64888
-9.63424
-9.78019
-9.77958
-9.78021
-9.78142
-9.78273
-9.78404
-9.78525
-9.7863
-9.78712
-9.78766
-9.78786
-9.7877
-9.78712
-9.78611
-9.78464
-9.78269
-9.78025
-9.77733
-9.77392
-9.77004
-9.76568
-9.76089
-9.75566
-9.75004
-9.74404
-9.73771
-9.73106
-9.72413
-9.71696
-9.70958
-9.70201
-9.6943
-9.68647
-9.67857
-9.67062
-9.66264
-9.65481
-9.64736
-9.63874
-9.62597
)
;

boundaryField
{
    movingWall
    {
        type            zeroGradient;
    }
    bottomWall
    {
        type            zeroGradient;
    }
    leftSide
    {
        type            zeroGradient;
    }
    rightSide
    {
        type            zeroGradient;
    }
    frontAndBack
    {
        type            empty;
    }
}


// ************************************************************************* //
