/*--------------------------------*- C++ -*----------------------------------*\
| =========                 |                                                 |
| \\      /  F ield         | OpenFOAM: The Open Source CFD Toolbox           |
|  \\    /   O peration     | Version:  v2012                                 |
|   \\  /    A nd           | Website:  www.openfoam.com                      |
|    \\/     M anipulation  |                                                 |
\*---------------------------------------------------------------------------*/
FoamFile
{
    version     2.0;
    format      ascii;
    class       surfaceScalarField;
    location    "0.65";
    object      phi;
}
// * * * * * * * * * * * * * * * * * * * * * * * * * * * * * * * * * * * * * //

dimensions      [0 3 -1 0 0 0 0];
oriented        oriented;


internalField   nonuniform List<scalar> 
3120
(
1.84441e-05
6.55591e-06
1.28427e-05
5.60136e-06
9.35148e-06
3.49125e-06
7.17666e-06
2.17482e-06
5.77467e-06
1.40199e-06
4.83187e-06
9.42797e-07
4.16643e-06
6.65436e-07
3.67426e-06
4.9217e-07
3.29552e-06
3.78745e-07
2.9947e-06
3.0082e-07
2.74976e-06
2.44935e-07
2.54637e-06
2.03393e-07
2.37478e-06
1.7159e-07
2.22813e-06
1.46646e-07
2.10145e-06
1.26683e-07
1.99102e-06
1.10428e-07
1.89403e-06
9.69907e-08
1.8083e-06
8.57325e-08
1.73212e-06
7.61837e-08
1.66412e-06
6.79924e-08
1.60323e-06
6.08905e-08
1.54856e-06
5.46705e-08
1.49939e-06
4.91699e-08
1.45513e-06
4.42604e-08
1.41529e-06
3.98396e-08
1.37947e-06
3.58261e-08
1.34731e-06
3.21555e-08
1.31853e-06
2.87781e-08
1.29287e-06
2.56583e-08
1.2701e-06
2.27742e-08
1.24998e-06
2.0119e-08
1.23228e-06
1.77039e-08
1.21671e-06
1.55619e-08
1.20296e-06
1.37556e-08
1.19057e-06
1.23855e-08
1.17898e-06
1.15941e-08
1.16738e-06
1.15965e-08
1.15459e-06
1.2793e-08
1.13912e-06
1.54745e-08
1.76058e-08
2.55027e-05
6.05319e-06
2.31417e-05
7.9624e-06
1.99922e-05
6.64072e-06
1.71183e-05
5.04873e-06
1.47611e-05
3.75917e-06
1.28934e-05
2.81055e-06
1.14197e-05
2.13907e-06
1.02463e-05
1.6656e-06
9.29839e-06
1.32665e-06
8.52067e-06
1.07854e-06
7.87301e-06
8.92597e-07
7.32635e-06
7.50057e-07
6.85943e-06
6.38508e-07
6.45649e-06
5.49583e-07
6.10566e-06
4.77518e-07
5.79783e-06
4.18251e-07
5.52597e-06
3.68858e-07
5.28451e-06
3.2719e-07
5.06905e-06
2.91644e-07
4.87604e-06
2.61e-07
4.70261e-06
2.34318e-07
4.54642e-06
2.10866e-07
4.40552e-06
1.90066e-07
4.27833e-06
1.71455e-07
4.1635e-06
1.54668e-07
4.05992e-06
1.39409e-07
3.96662e-06
1.25447e-07
3.8828e-06
1.12602e-07
3.80772e-06
1.00744e-07
3.7407e-06
8.97933e-08
3.6811e-06
7.97196e-08
3.62825e-06
7.05513e-08
3.58143e-06
6.23829e-08
3.5398e-06
5.5387e-08
3.50236e-06
4.98231e-08
3.46792e-06
4.60328e-08
3.43508e-06
4.44368e-08
3.40238e-06
4.54935e-08
3.36891e-06
4.89459e-08
5.19795e-08
2.63558e-05
4.69741e-06
2.63127e-05
8.0055e-06
2.48785e-05
8.0749e-06
2.28662e-05
7.06103e-06
2.07798e-05
5.84552e-06
1.88481e-05
4.74226e-06
1.71488e-05
3.83841e-06
1.56867e-05
3.12771e-06
1.44377e-05
2.57563e-06
1.33702e-05
2.14609e-06
1.24536e-05
1.80913e-06
1.16619e-05
1.54178e-06
1.09734e-05
1.32698e-06
1.03708e-05
1.15221e-06
9.84006e-06
1.00827e-06
9.36997e-06
8.88342e-07
8.95151e-06
7.87312e-07
8.57738e-06
7.01319e-07
8.24163e-06
6.27403e-07
7.93936e-06
5.63269e-07
7.66655e-06
5.0712e-07
7.41989e-06
4.57535e-07
7.19657e-06
4.13378e-07
6.99429e-06
3.73738e-07
6.81108e-06
3.37881e-07
6.64527e-06
3.05217e-07
6.49544e-06
2.75276e-07
6.36035e-06
2.47695e-07
6.23888e-06
2.22208e-07
6.13003e-06
1.98644e-07
6.03282e-06
1.76932e-07
5.94626e-06
1.57106e-07
5.86933e-06
1.39318e-07
5.80087e-06
1.23842e-07
5.73962e-06
1.11079e-07
5.68413e-06
1.01522e-07
5.63287e-06
9.56924e-08
5.58442e-06
9.39505e-08
5.53777e-06
9.55919e-08
9.74559e-08
2.61648e-05
3.5326e-06
2.69818e-05
7.18851e-06
2.67716e-05
8.28509e-06
2.57893e-05
8.0433e-06
2.4396e-05
7.23888e-06
2.28569e-05
6.2813e-06
2.13321e-05
5.36325e-06
1.99026e-05
4.55725e-06
1.86007e-05
3.8775e-06
1.74325e-05
3.31432e-06
1.63912e-05
2.85043e-06
1.54649e-05
2.46802e-06
1.46405e-05
2.15134e-06
1.39054e-05
1.88737e-06
1.3248e-05
1.66565e-06
1.26584e-05
1.47792e-06
1.21281e-05
1.31764e-06
1.16497e-05
1.17968e-06
1.12172e-05
1.05997e-06
1.08252e-05
9.5525e-07
1.04694e-05
8.62928e-07
1.0146e-05
7.80905e-07
9.85191e-06
7.07482e-07
9.58438e-06
6.41277e-07
9.3411e-06
5.81161e-07
9.12009e-06
5.26222e-07
8.91964e-06
4.75725e-07
8.73824e-06
4.29098e-07
8.57453e-06
3.85916e-07
8.42727e-06
3.45901e-07
8.29529e-06
3.08919e-07
8.1774e-06
2.74996e-07
8.0724e-06
2.44316e-07
7.97901e-06
2.17233e-07
7.89583e-06
1.94253e-07
7.82138e-06
1.75978e-07
7.75407e-06
1.62999e-07
7.69238e-06
1.55638e-07
7.63489e-06
1.53087e-07
1.52406e-07
2.58465e-05
2.68612e-06
2.68506e-05
6.18442e-06
2.7287e-05
7.84865e-06
2.70756e-05
8.25473e-06
2.63692e-05
7.94526e-06
2.5357e-05
7.29353e-06
2.41953e-05
6.52496e-06
2.2992e-05
5.76046e-06
2.18133e-05
5.05626e-06
2.0695e-05
4.43258e-06
1.96541e-05
3.89138e-06
1.86958e-05
3.42634e-06
1.7819e-05
3.02814e-06
1.70193e-05
2.68704e-06
1.62909e-05
2.39405e-06
1.56275e-05
2.14129e-06
1.50231e-05
1.92209e-06
1.44719e-05
1.7309e-06
1.39687e-05
1.56311e-06
1.35091e-05
1.41489e-06
1.30889e-05
1.28312e-06
1.27046e-05
1.1652e-06
1.23531e-05
1.05897e-06
1.20317e-05
9.6265e-07
1.17381e-05
8.74774e-07
1.14702e-05
7.94129e-07
1.12262e-05
7.19734e-07
1.10045e-05
6.50815e-07
1.08036e-05
5.86789e-07
1.06223e-05
5.27266e-07
1.04591e-05
4.72043e-07
1.0313e-05
4.21119e-07
1.01826e-05
3.74698e-07
1.00667e-05
3.33186e-07
9.96375e-06
2.97175e-07
9.87236e-06
2.6737e-07
9.79088e-06
2.4447e-07
9.71761e-06
2.28908e-07
9.65059e-06
2.20108e-07
2.15797e-07
2.55903e-05
2.09578e-06
2.65263e-05
5.24844e-06
2.72314e-05
7.14352e-06
2.74933e-05
7.99289e-06
2.73154e-05
8.12308e-06
2.67913e-05
7.81772e-06
2.60328e-05
7.28347e-06
2.51379e-05
6.65534e-06
2.41805e-05
6.0136e-06
2.32116e-05
5.40155e-06
2.22635e-05
4.83949e-06
2.13555e-05
4.33434e-06
2.04978e-05
3.88576e-06
1.9695e-05
3.48986e-06
1.89478e-05
3.14122e-06
1.8255e-05
2.83412e-06
1.76141e-05
2.56305e-06
1.70219e-05
2.32303e-06
1.64754e-05
2.10963e-06
1.59713e-05
1.91901e-06
1.55065e-05
1.74788e-06
1.50783e-05
1.59342e-06
1.4684e-05
1.45324e-06
1.43214e-05
1.32531e-06
1.39882e-05
1.20793e-06
1.36827e-05
1.09965e-06
1.34031e-05
9.99324e-07
1.31479e-05
9.05996e-07
1.29158e-05
8.18957e-07
1.27053e-05
7.37715e-07
1.25154e-05
6.62006e-07
1.23447e-05
5.91799e-07
1.21921e-05
5.27307e-07
1.20563e-05
4.68984e-07
1.19359e-05
4.17503e-07
1.18296e-05
3.73699e-07
1.17356e-05
3.38453e-07
1.16521e-05
3.12473e-07
1.15765e-05
2.95688e-07
2.86802e-07
2.54156e-05
1.68017e-06
2.62122e-05
4.45183e-06
2.69798e-05
6.3759e-06
2.74881e-05
7.4846e-06
2.76625e-05
7.94877e-06
2.75212e-05
7.95897e-06
2.7125e-05
7.67966e-06
2.65445e-05
7.23581e-06
2.58441e-05
6.71406e-06
2.50755e-05
6.17017e-06
2.42774e-05
5.63756e-06
2.34772e-05
5.13456e-06
2.26932e-05
4.66979e-06
2.1937e-05
4.246e-06
2.12157e-05
3.86254e-06
2.05329e-05
3.51695e-06
1.989e-05
3.2059e-06
1.92872e-05
2.92583e-06
1.87236e-05
2.6732e-06
1.8198e-05
2.44468e-06
1.77086e-05
2.23726e-06
1.72538e-05
2.04824e-06
1.68318e-05
1.87523e-06
1.64409e-05
1.71616e-06
1.60796e-05
1.56922e-06
1.57464e-05
1.43289e-06
1.54398e-05
1.30589e-06
1.51586e-05
1.18718e-06
1.49016e-05
1.07597e-06
1.46677e-05
9.71677e-07
1.44557e-05
8.74011e-07
1.42645e-05
7.82919e-07
1.40932e-05
6.98629e-07
1.39406e-05
6.21647e-07
1.38053e-05
5.52749e-07
1.36861e-05
4.92936e-07
1.35812e-05
4.43358e-07
1.34885e-05
4.05146e-07
1.34052e-05
3.78945e-07
3.64661e-07
2.53012e-05
1.37902e-06
2.59573e-05
3.79564e-06
2.66905e-05
5.64272e-06
2.72999e-05
6.87519e-06
2.76827e-05
7.56604e-06
2.78112e-05
7.83045e-06
2.77041e-05
7.78678e-06
2.7402e-05
7.5379e-06
2.69516e-05
7.1644e-06
2.6397e-05
6.72483e-06
2.57752e-05
6.25932e-06
2.51159e-05
5.79388e-06
2.44413e-05
5.34432e-06
2.37679e-05
4.91946e-06
2.3107e-05
4.52346e-06
2.24664e-05
4.15755e-06
2.18511e-05
3.82114e-06
2.12643e-05
3.51263e-06
2.07076e-05
3.2299e-06
2.01817e-05
2.97059e-06
1.96866e-05
2.73234e-06
1.9222e-05
2.51289e-06
1.87871e-05
2.31012e-06
1.83811e-05
2.12211e-06
1.80032e-05
1.94714e-06
1.76524e-05
1.78372e-06
1.73277e-05
1.63056e-06
1.70283e-05
1.4866e-06
1.67532e-05
1.35102e-06
1.65017e-05
1.22324e-06
1.62728e-05
1.10294e-06
1.60656e-05
9.90069e-07
1.58793e-05
8.849e-07
1.5713e-05
7.88008e-07
1.55654e-05
7.00299e-07
1.54354e-05
6.22989e-07
1.53212e-05
5.57573e-07
1.52206e-05
5.05729e-07
1.51305e-05
4.68978e-07
4.48616e-07
2.52253e-05
1.15368e-06
2.57613e-05
3.25971e-06
2.64224e-05
4.98161e-06
2.70494e-05
6.24816e-06
2.75388e-05
7.0766e-06
2.78408e-05
7.52848e-06
2.79456e-05
7.68197e-06
2.78687e-05
7.61483e-06
2.76381e-05
7.39495e-06
2.72861e-05
7.0769e-06
2.68435e-05
6.70189e-06
2.63378e-05
6.29961e-06
2.57916e-05
5.89049e-06
2.52232e-05
5.48793e-06
2.46464e-05
5.10022e-06
2.40719e-05
4.73205e-06
2.35074e-05
4.38563e-06
2.29585e-05
4.06156e-06
2.2429e-05
3.75939e-06
2.19215e-05
3.47804e-06
2.14378e-05
3.21609e-06
2.09787e-05
2.97196e-06
2.05448e-05
2.74403e-06
2.01362e-05
2.53072e-06
1.97528e-05
2.33056e-06
1.93943e-05
2.14221e-06
1.90604e-05
1.96449e-06
1.87505e-05
1.79643e-06
1.84643e-05
1.63723e-06
1.82012e-05
1.48635e-06
1.79606e-05
1.3435e-06
1.7742e-05
1.20868e-06
1.75447e-05
1.08222e-06
1.73679e-05
9.64781e-07
1.72108e-05
8.57448e-07
1.70721e-05
7.61695e-07
1.69502e-05
6.79432e-07
1.6843e-05
6.12974e-07
1.67471e-05
5.64843e-07
5.3788e-07
2.51736e-05
9.80085e-07
2.56122e-05
2.82109e-06
2.61924e-05
4.40146e-06
2.67934e-05
5.64714e-06
2.73235e-05
6.54649e-06
2.77259e-05
7.12604e-06
2.7975e-05
7.43292e-06
2.8068e-05
7.52179e-06
2.80172e-05
7.4458e-06
2.78424e-05
7.25168e-06
2.75665e-05
6.9778e-06
2.72119e-05
6.65416e-06
2.67992e-05
6.30319e-06
2.6346e-05
5.94112e-06
2.5867e-05
5.5792e-06
2.53742e-05
5.22493e-06
2.48768e-05
4.88301e-06
2.43822e-05
4.55613e-06
2.3896e-05
4.24558e-06
2.34224e-05
3.95166e-06
2.29645e-05
3.67405e-06
2.25244e-05
3.412e-06
2.21039e-05
3.16455e-06
2.1704e-05
2.93064e-06
2.13254e-05
2.70914e-06
2.09686e-05
2.49902e-06
2.06338e-05
2.2993e-06
2.03211e-05
2.10914e-06
2.00304e-05
1.92788e-06
1.97617e-05
1.75506e-06
1.95148e-05
1.59047e-06
1.92893e-05
1.43419e-06
1.90848e-05
1.28664e-06
1.8901e-05
1.14864e-06
1.8737e-05
1.02145e-06
1.85918e-05
9.06846e-07
1.8464e-05
8.07216e-07
1.83514e-05
7.25582e-07
1.82507e-05
6.65554e-07
6.31635e-07
2.5137e-05
8.4306e-07
2.54984e-05
2.45976e-06
2.60012e-05
3.89866e-06
2.6556e-05
5.09227e-06
2.70867e-05
6.01581e-06
2.75382e-05
6.67454e-06
2.78777e-05
7.09346e-06
2.80912e-05
7.30827e-06
2.8179e-05
7.35803e-06
2.81504e-05
7.28028e-06
2.80199e-05
7.10828e-06
2.78042e-05
6.86988e-06
2.75199e-05
6.58745e-06
2.71827e-05
6.2783e-06
2.68065e-05
5.9554e-06
2.64032e-05
5.62821e-06
2.59829e-05
5.30335e-06
2.55537e-05
4.98529e-06
2.51225e-05
4.67687e-06
2.46944e-05
4.37976e-06
2.42737e-05
4.09472e-06
2.38637e-05
3.82195e-06
2.34671e-05
3.56121e-06
2.30857e-05
3.31202e-06
2.27211e-05
3.07376e-06
2.23744e-05
2.84572e-06
2.20464e-05
2.62724e-06
2.17379e-05
2.4177e-06
2.14491e-05
2.21661e-06
2.11805e-05
2.02367e-06
2.09322e-05
1.83878e-06
2.07042e-05
1.66216e-06
2.04965e-05
1.49434e-06
2.03089e-05
1.33631e-06
2.01408e-05
1.18956e-06
1.99914e-05
1.05623e-06
1.98594e-05
9.39186e-07
1.97428e-05
8.42221e-07
1.96382e-05
7.70089e-07
7.29039e-07
2.51103e-05
7.3274e-07
2.54104e-05
2.15969e-06
2.58441e-05
3.46499e-06
2.63457e-05
4.59059e-06
2.68543e-05
5.50728e-06
2.73205e-05
6.20828e-06
2.77102e-05
6.70376e-06
2.80035e-05
7.015e-06
2.81925e-05
7.16901e-06
2.82785e-05
7.19428e-06
2.82687e-05
7.11805e-06
2.81739e-05
6.96466e-06
2.80065e-05
6.75486e-06
2.77792e-05
6.50566e-06
2.75039e-05
6.23063e-06
2.71919e-05
5.94025e-06
2.68528e-05
5.64243e-06
2.64951e-05
5.34298e-06
2.6126e-05
5.046e-06
2.57514e-05
4.75431e-06
2.53764e-05
4.46974e-06
2.5005e-05
4.19334e-06
2.46406e-05
3.92565e-06
2.42858e-05
3.66681e-06
2.39428e-05
3.4167e-06
2.36135e-05
3.17506e-06
2.32992e-05
2.94155e-06
2.30011e-05
2.71585e-06
2.272e-05
2.49769e-06
2.24567e-05
2.28697e-06
2.22117e-05
2.08375e-06
2.19855e-05
1.88841e-06
2.17782e-05
1.70164e-06
2.15898e-05
1.52464e-06
2.14202e-05
1.35915e-06
2.12688e-05
1.20767e-06
2.11344e-05
1.07361e-06
2.1015e-05
9.61552e-07
2.09077e-05
8.77415e-07
8.2924e-07
2.50902e-05
6.4249e-07
2.53415e-05
1.90846e-06
2.57152e-05
3.09127e-06
2.61634e-05
4.14237e-06
2.66381e-05
5.03257e-06
2.70974e-05
5.74901e-06
2.75087e-05
6.29242e-06
2.785e-05
6.67374e-06
2.81087e-05
6.91032e-06
2.82803e-05
7.02269e-06
2.83663e-05
7.03206e-06
2.83723e-05
6.95864e-06
2.83065e-05
6.82065e-06
2.81783e-05
6.63387e-06
2.79974e-05
6.41149e-06
2.77734e-05
6.16424e-06
2.75152e-05
5.90069e-06
2.72307e-05
5.62746e-06
2.69271e-05
5.34958e-06
2.66107e-05
5.07078e-06
2.62866e-05
4.79375e-06
2.59597e-05
4.52034e-06
2.56335e-05
4.25178e-06
2.53115e-05
3.98882e-06
2.49964e-05
3.73186e-06
2.46903e-05
3.48109e-06
2.43953e-05
3.23655e-06
2.4113e-05
2.99822e-06
2.38445e-05
2.76611e-06
2.35912e-05
2.54033e-06
2.33538e-05
2.32116e-06
2.3133e-05
2.10914e-06
2.29295e-05
1.90519e-06
2.27434e-05
1.7107e-06
2.25749e-05
1.52771e-06
2.24234e-05
1.3591e-06
2.22882e-05
1.20883e-06
2.21675e-05
1.08226e-06
2.20584e-05
9.86509e-07
9.31389e-07
2.50748e-05
5.67691e-07
2.52868e-05
1.69649e-06
2.56092e-05
2.7688e-06
2.60071e-05
3.74452e-06
2.6443e-05
4.59665e-06
2.68823e-05
5.30975e-06
2.72957e-05
5.87898e-06
2.76613e-05
6.30817e-06
2.79642e-05
6.60737e-06
2.81964e-05
6.79052e-06
2.83551e-05
6.87335e-06
2.84419e-05
6.87191e-06
2.8461e-05
6.8015e-06
2.84189e-05
6.67602e-06
2.83227e-05
6.50768e-06
2.81801e-05
6.30682e-06
2.79987e-05
6.08209e-06
2.77857e-05
5.84046e-06
2.75477e-05
5.58754e-06
2.72908e-05
5.32766e-06
2.70204e-05
5.06417e-06
2.67412e-05
4.79956e-06
2.64573e-05
4.53565e-06
2.61724e-05
4.27376e-06
2.58895e-05
4.01477e-06
2.56113e-05
3.7593e-06
2.53401e-05
3.50776e-06
2.50778e-05
3.26047e-06
2.48262e-05
3.01771e-06
2.45867e-05
2.77985e-06
2.43605e-05
2.54737e-06
2.41486e-05
2.32105e-06
2.39518e-05
2.102e-06
2.37706e-05
1.89187e-06
2.36053e-05
1.69298e-06
2.34558e-05
1.50861e-06
2.33214e-05
1.34327e-06
2.32005e-05
1.2031e-06
2.30907e-05
1.09638e-06
1.03466e-06
2.50627e-05
5.05028e-07
2.52428e-05
1.5164e-06
2.55217e-05
2.48989e-06
2.58736e-05
3.39262e-06
2.62697e-05
4.20051e-06
2.66818e-05
4.89768e-06
2.70845e-05
5.47623e-06
2.74574e-05
5.93535e-06
2.77849e-05
6.27983e-06
2.8057e-05
6.51838e-06
2.82683e-05
6.66208e-06
2.84171e-05
6.72315e-06
2.85047e-05
6.7139e-06
2.85346e-05
6.64611e-06
2.85117e-05
6.53056e-06
2.84417e-05
6.37679e-06
2.83308e-05
6.19306e-06
2.81849e-05
5.98634e-06
2.801e-05
5.76241e-06
2.78117e-05
5.52597e-06
2.75951e-05
5.28078e-06
2.73648e-05
5.02981e-06
2.71251e-05
4.77535e-06
2.68797e-05
4.51916e-06
2.66319e-05
4.26257e-06
2.63847e-05
4.00658e-06
2.61405e-05
3.75195e-06
2.59016e-05
3.49932e-06
2.56701e-05
3.24927e-06
2.54475e-05
3.00239e-06
2.52355e-05
2.75942e-06
2.50352e-05
2.52136e-06
2.48476e-05
2.28953e-06
2.46737e-05
2.06585e-06
2.45137e-05
1.85294e-06
2.43678e-05
1.65447e-06
2.42356e-05
1.47549e-06
2.41158e-05
1.32291e-06
2.40061e-05
1.20608e-06
1.13825e-06
2.5053e-05
4.52056e-07
2.52069e-05
1.36243e-06
2.54488e-05
2.24801e-06
2.57596e-05
3.08184e-06
2.61171e-05
3.84296e-06
2.64987e-05
4.51615e-06
2.68828e-05
5.0921e-06
2.7251e-05
5.56716e-06
2.75884e-05
5.94243e-06
2.78841e-05
6.22267e-06
2.8131e-05
6.41521e-06
2.83252e-05
6.52889e-06
2.84659e-05
6.57327e-06
2.85541e-05
6.55792e-06
2.85926e-05
6.49203e-06
2.85853e-05
6.38405e-06
2.85368e-05
6.24157e-06
2.84519e-05
6.07121e-06
2.83357e-05
5.87866e-06
2.81929e-05
5.66871e-06
2.80284e-05
5.44534e-06
2.78464e-05
5.21179e-06
2.7651e-05
4.97071e-06
2.7446e-05
4.72418e-06
2.72347e-05
4.47389e-06
2.70201e-05
4.22116e-06
2.6805e-05
3.96708e-06
2.65917e-05
3.71256e-06
2.63825e-05
3.45846e-06
2.61793e-05
3.20562e-06
2.59837e-05
2.95502e-06
2.57972e-05
2.70786e-06
2.5621e-05
2.46572e-06
2.54561e-05
2.23075e-06
2.53032e-05
2.0059e-06
2.51624e-05
1.7952e-06
2.50337e-05
1.60424e-06
2.4916e-05
1.44062e-06
2.48073e-05
1.31476e-06
1.24143e-06
2.50451e-05
4.06937e-07
2.51775e-05
1.23007e-06
2.53879e-05
2.03763e-06
2.56622e-05
2.8075e-06
2.59835e-05
3.52168e-06
2.63335e-05
4.16612e-06
2.66944e-05
4.73117e-06
2.70501e-05
5.21154e-06
2.73866e-05
5.60588e-06
2.76932e-05
5.91608e-06
2.79619e-05
6.14652e-06
2.81875e-05
6.30324e-06
2.83675e-05
6.39333e-06
2.85011e-05
6.42432e-06
2.85894e-05
6.40375e-06
2.86345e-05
6.33886e-06
2.86398e-05
6.23635e-06
2.86087e-05
6.10229e-06
2.85453e-05
5.94206e-06
2.84537e-05
5.76033e-06
2.83379e-05
5.5611e-06
2.8202e-05
5.34773e-06
2.80496e-05
5.12305e-06
2.78844e-05
4.88938e-06
2.77097e-05
4.64867e-06
2.75283e-05
4.4025e-06
2.73432e-05
4.15221e-06
2.71568e-05
3.89898e-06
2.69713e-05
3.64389e-06
2.67889e-05
3.38802e-06
2.66114e-05
3.13257e-06
2.64403e-05
2.87896e-06
2.6277e-05
2.629e-06
2.61227e-05
2.3851e-06
2.59781e-05
2.15048e-06
2.58437e-05
1.92958e-06
2.57195e-05
1.72843e-06
2.56048e-05
1.55534e-06
2.54979e-05
1.42164e-06
1.3435e-06
2.50387e-05
3.6826e-07
2.5153e-05
1.11573e-06
2.53365e-05
1.85415e-06
2.55787e-05
2.5653e-06
2.58666e-05
3.23382e-06
2.61856e-05
3.84709e-06
2.65211e-05
4.39569e-06
2.68591e-05
4.87353e-06
2.71872e-05
5.27773e-06
2.74952e-05
5.60815e-06
2.77748e-05
5.86692e-06
2.80202e-05
6.05785e-06
2.82275e-05
6.18595e-06
2.8395e-05
6.25687e-06
2.85221e-05
6.27662e-06
2.86098e-05
6.25117e-06
2.86599e-05
6.18627e-06
2.86749e-05
6.0873e-06
2.86578e-05
5.95915e-06
2.86119e-05
5.80623e-06
2.85406e-05
5.63238e-06
2.84474e-05
5.44095e-06
2.83356e-05
5.23484e-06
2.82085e-05
5.01649e-06
2.80692e-05
4.78799e-06
2.79206e-05
4.55112e-06
2.77653e-05
4.30743e-06
2.7606e-05
4.05828e-06
2.74449e-05
3.80498e-06
2.72842e-05
3.5488e-06
2.71256e-05
3.29114e-06
2.69709e-05
3.03364e-06
2.68216e-05
2.77833e-06
2.66788e-05
2.52784e-06
2.65436e-05
2.28569e-06
2.64166e-05
2.05664e-06
2.62978e-05
1.84721e-06
2.61869e-05
1.66628e-06
2.60825e-05
1.52603e-06
1.44387e-06
2.50333e-05
3.34925e-07
2.51325e-05
1.01656e-06
2.52929e-05
1.69372e-06
2.55069e-05
2.35135e-06
2.57643e-05
2.9764e-06
2.60537e-05
3.5577e-06
2.6363e-05
4.08637e-06
2.66805e-05
4.55609e-06
2.69951e-05
4.96308e-06
2.72974e-05
5.30583e-06
2.75795e-05
5.58484e-06
2.78352e-05
5.80216e-06
2.80601e-05
5.96107e-06
2.82513e-05
6.06564e-06
2.84075e-05
6.12046e-06
2.85283e-05
6.1303e-06
2.86147e-05
6.09994e-06
2.8668e-05
6.03399e-06
2.86903e-05
5.93679e-06
2.86842e-05
5.81232e-06
2.86524e-05
5.6642e-06
2.85977e-05
5.49562e-06
2.85232e-05
5.30943e-06
2.84315e-05
5.10811e-06
2.83257e-05
4.89381e-06
2.82084e-05
4.66843e-06
2.80822e-05
4.43364e-06
2.79495e-05
4.19098e-06
2.78126e-05
3.9419e-06
2.76735e-05
3.68786e-06
2.75342e-05
3.43043e-06
2.73964e-05
3.17144e-06
2.72616e-05
2.91312e-06
2.71311e-05
2.65832e-06
2.7006e-05
2.41083e-06
2.68869e-05
2.17573e-06
2.67742e-05
1.95992e-06
2.66677e-05
1.77283e-06
2.65663e-05
1.62738e-06
1.542e-06
2.50289e-05
3.06065e-07
2.51152e-05
9.30236e-07
2.52558e-05
1.55312e-06
2.54449e-05
2.16224e-06
2.56748e-05
2.74651e-06
2.59363e-05
3.29613e-06
2.62198e-05
3.80294e-06
2.65151e-05
4.26072e-06
2.6813e-05
4.66523e-06
2.71047e-05
5.01409e-06
2.7383e-05
5.30663e-06
2.76415e-05
5.54358e-06
2.78758e-05
5.72685e-06
2.80822e-05
5.85918e-06
2.82588e-05
5.94389e-06
2.84044e-05
5.98468e-06
2.8519e-05
5.98539e-06
2.86031e-05
5.94985e-06
2.86581e-05
5.88179e-06
2.86857e-05
5.78473e-06
2.8688e-05
5.66193e-06
2.86672e-05
5.51637e-06
2.86259e-05
5.35077e-06
2.85665e-05
5.16752e-06
2.84915e-05
4.9688e-06
2.84034e-05
4.75653e-06
2.83045e-05
4.53247e-06
2.81973e-05
4.29827e-06
2.80837e-05
4.05548e-06
2.79658e-05
3.80571e-06
2.78456e-05
3.55068e-06
2.77246e-05
3.29239e-06
2.76045e-05
3.03323e-06
2.74866e-05
2.77628e-06
2.73718e-05
2.52555e-06
2.72612e-05
2.28641e-06
2.7155e-05
2.06611e-06
2.70533e-05
1.87454e-06
2.69554e-05
1.72522e-06
1.63743e-06
2.50251e-05
2.80986e-07
2.51004e-05
8.54875e-07
2.52239e-05
1.42968e-06
2.53911e-05
1.995e-06
2.55962e-05
2.54141e-06
2.5832e-05
3.06037e-06
2.60904e-05
3.5445e-06
2.63633e-05
3.98787e-06
2.66424e-05
4.38609e-06
2.69202e-05
4.73627e-06
2.71899e-05
5.03694e-06
2.74457e-05
5.28785e-06
2.76827e-05
5.48984e-06
2.78973e-05
5.64456e-06
2.80869e-05
5.75429e-06
2.82498e-05
5.82175e-06
2.83853e-05
5.84991e-06
2.84933e-05
5.84186e-06
2.85744e-05
5.80071e-06
2.86296e-05
5.72947e-06
2.86605e-05
5.63103e-06
2.86688e-05
5.50808e-06
2.86565e-05
5.36311e-06
2.86256e-05
5.19842e-06
2.85783e-05
5.01609e-06
2.85168e-05
4.81805e-06
2.84432e-05
4.60607e-06
2.83596e-05
4.38185e-06
2.8268e-05
4.14704e-06
2.81704e-05
3.90335e-06
2.80684e-05
3.65261e-06
2.79639e-05
3.39694e-06
2.78582e-05
3.13893e-06
2.77527e-05
2.88181e-06
2.76484e-05
2.6298e-06
2.75463e-05
2.38852e-06
2.74469e-05
2.16553e-06
2.73503e-05
1.97109e-06
2.72564e-05
1.81921e-06
1.72981e-06
2.50219e-05
2.59128e-07
2.50878e-05
7.88928e-07
2.51964e-05
1.32113e-06
2.53443e-05
1.84701e-06
2.55272e-05
2.35856e-06
2.57392e-05
2.84835e-06
2.59739e-05
3.30979e-06
2.62245e-05
3.73733e-06
2.64839e-05
4.12663e-06
2.67457e-05
4.47454e-06
2.70035e-05
4.77906e-06
2.72521e-05
5.03927e-06
2.74868e-05
5.25518e-06
2.77038e-05
5.42758e-06
2.79002e-05
5.55786e-06
2.8074e-05
5.64792e-06
2.8224e-05
5.69995e-06
2.83495e-05
5.71636e-06
2.84505e-05
5.69964e-06
2.85277e-05
5.65232e-06
2.85819e-05
5.57685e-06
2.86143e-05
5.47562e-06
2.86266e-05
5.35087e-06
2.86203e-05
5.20471e-06
2.85972e-05
5.03912e-06
2.85593e-05
4.85595e-06
2.85084e-05
4.65697e-06
2.84464e-05
4.44387e-06
2.83751e-05
4.21835e-06
2.82963e-05
3.98218e-06
2.82116e-05
3.7373e-06
2.81226e-05
3.48594e-06
2.80307e-05
3.2308e-06
2.79373e-05
2.97527e-06
2.78433e-05
2.72377e-06
2.77497e-05
2.4821e-06
2.76571e-05
2.2581e-06
2.75659e-05
2.0623e-06
2.74761e-05
1.90909e-06
1.81883e-06
2.50191e-05
2.40034e-07
2.50769e-05
7.31115e-07
2.51725e-05
1.22556e-06
2.53035e-05
1.71602e-06
2.54664e-05
2.19567e-06
2.56566e-05
2.65808e-06
2.58691e-05
3.09735e-06
2.6098e-05
3.50842e-06
2.63375e-05
3.88709e-06
2.65819e-05
4.23013e-06
2.68258e-05
4.53523e-06
2.7064e-05
4.80099e-06
2.72924e-05
5.02682e-06
2.75072e-05
5.21282e-06
2.77053e-05
5.35969e-06
2.78846e-05
5.46862e-06
2.80435e-05
5.54111e-06
2.81809e-05
5.57897e-06
2.82964e-05
5.58412e-06
2.83901e-05
5.5586e-06
2.84625e-05
5.50447e-06
2.85144e-05
5.42375e-06
2.85468e-05
5.31842e-06
2.85611e-05
5.19039e-06
2.85588e-05
5.04147e-06
2.85413e-05
4.87342e-06
2.85103e-05
4.68794e-06
2.84675e-05
4.4867e-06
2.84144e-05
4.27142e-06
2.83527e-05
4.04391e-06
2.82838e-05
3.80615e-06
2.82093e-05
3.56047e-06
2.81304e-05
3.30968e-06
2.80484e-05
3.0573e-06
2.79643e-05
2.80788e-06
2.7879e-05
2.5674e-06
2.77932e-05
2.3439e-06
2.77074e-05
2.14812e-06
2.76217e-05
1.99471e-06
1.90429e-06
2.50167e-05
2.23325e-07
2.50675e-05
6.80364e-07
2.51517e-05
1.14135e-06
2.52676e-05
1.60006e-06
2.54126e-05
2.05068e-06
2.55831e-05
2.48761e-06
2.57748e-05
2.90566e-06
2.5983e-05
3.30018e-06
2.62029e-05
3.66724e-06
2.64294e-05
4.00361e-06
2.66578e-05
4.30684e-06
2.68836e-05
4.57522e-06
2.71027e-05
4.8077e-06
2.73116e-05
5.00388e-06
2.75074e-05
5.16389e-06
2.76877e-05
5.28834e-06
2.78507e-05
5.37816e-06
2.7995e-05
5.43459e-06
2.81201e-05
5.45907e-06
2.82255e-05
5.45319e-06
2.83114e-05
5.41858e-06
2.83782e-05
5.35694e-06
2.84266e-05
5.26997e-06
2.84577e-05
5.15935e-06
2.84724e-05
5.02671e-06
2.84722e-05
4.87368e-06
2.84583e-05
4.70187e-06
2.84321e-05
4.51291e-06
2.8395e-05
4.30849e-06
2.83485e-05
4.09043e-06
2.82938e-05
3.86077e-06
2.82324e-05
3.62188e-06
2.81655e-05
3.37665e-06
2.80941e-05
3.12871e-06
2.80192e-05
2.88271e-06
2.79418e-05
2.6448e-06
2.78626e-05
2.42313e-06
2.77821e-05
2.2286e-06
2.77008e-05
2.076e-06
1.98605e-06
2.50146e-05
2.08688e-07
2.50592e-05
6.35771e-07
2.51335e-05
1.0671e-06
2.52361e-05
1.49742e-06
2.53651e-05
1.92172e-06
2.55175e-05
2.33516e-06
2.569e-05
2.73315e-06
2.58787e-05
3.11148e-06
2.60795e-05
3.46649e-06
2.6288e-05
3.79506e-06
2.65002e-05
4.09467e-06
2.6712e-05
4.36342e-06
2.69197e-05
4.59995e-06
2.71201e-05
4.80349e-06
2.73103e-05
4.97371e-06
2.74879e-05
5.11075e-06
2.7651e-05
5.21506e-06
2.77982e-05
5.28741e-06
2.79285e-05
5.3288e-06
2.80413e-05
5.34038e-06
2.81364e-05
5.32343e-06
2.8214e-05
5.27932e-06
2.82745e-05
5.20947e-06
2.83186e-05
5.11531e-06
2.8347e-05
4.9983e-06
2.83607e-05
4.85992e-06
2.8361e-05
4.70166e-06
2.83488e-05
4.52509e-06
2.83254e-05
4.33186e-06
2.82921e-05
4.12377e-06
2.825e-05
3.90288e-06
2.82002e-05
3.67161e-06
2.8144e-05
3.43289e-06
2.80823e-05
3.19044e-06
2.8016e-05
2.949e-06
2.7946e-05
2.71481e-06
2.7873e-05
2.4961e-06
2.77977e-05
2.30388e-06
2.77207e-05
2.15297e-06
2.06401e-06
2.50128e-05
1.95856e-07
2.5052e-05
5.96566e-07
2.51175e-05
1.00164e-06
2.52083e-05
1.40658e-06
2.53229e-05
1.80712e-06
2.54591e-05
2.19905e-06
2.56139e-05
2.5783e-06
2.57843e-05
2.94111e-06
2.59667e-05
3.28406e-06
2.61576e-05
3.6042e-06
2.63532e-05
3.89901e-06
2.65502e-05
4.16647e-06
2.67451e-05
4.40505e-06
2.69349e-05
4.61366e-06
2.7117e-05
4.79165e-06
2.72889e-05
4.93877e-06
2.74489e-05
5.05508e-06
2.75954e-05
5.14094e-06
2.77272e-05
5.19697e-06
2.78437e-05
5.22394e-06
2.79443e-05
5.2228e-06
2.8029e-05
5.19462e-06
2.80979e-05
5.14053e-06
2.81515e-05
5.06174e-06
2.81903e-05
4.95952e-06
2.8215e-05
4.83519e-06
2.82265e-05
4.69013e-06
2.82258e-05
4.52581e-06
2.82138e-05
4.34383e-06
2.81917e-05
4.14597e-06
2.81603e-05
3.93427e-06
2.81207e-05
3.71118e-06
2.80739e-05
3.47968e-06
2.80208e-05
3.24353e-06
2.79623e-05
3.00754e-06
2.78991e-05
2.778e-06
2.7832e-05
2.5632e-06
2.77617e-05
2.37417e-06
2.7689e-05
2.22566e-06
2.13814e-06
2.50113e-05
1.84603e-07
2.50457e-05
5.62084e-07
2.51035e-05
9.43895e-07
2.51838e-05
1.32621e-06
2.52856e-05
1.70537e-06
2.54069e-05
2.07771e-06
2.55456e-05
2.43965e-06
2.56989e-05
2.7878e-06
2.58639e-05
3.11902e-06
2.60376e-05
3.4305e-06
2.62169e-05
3.71979e-06
2.63985e-05
3.98482e-06
2.65796e-05
4.22393e-06
2.67575e-05
4.43582e-06
2.69295e-05
4.61959e-06
2.70936e-05
4.77468e-06
2.72479e-05
4.90083e-06
2.73907e-05
4.99807e-06
2.7521e-05
5.06667e-06
2.76379e-05
5.10709e-06
2.77407e-05
5.11998e-06
2.78292e-05
5.10612e-06
2.79033e-05
5.06639e-06
2.79633e-05
5.00179e-06
2.80094e-05
4.91339e-06
2.80423e-05
4.80235e-06
2.80625e-05
4.66994e-06
2.80707e-05
4.51753e-06
2.80679e-05
4.34664e-06
2.80549e-05
4.15903e-06
2.80324e-05
3.95671e-06
2.80015e-05
3.74214e-06
2.79628e-05
3.51832e-06
2.79173e-05
3.28905e-06
2.78657e-05
3.05916e-06
2.78087e-05
2.835e-06
2.7747e-05
2.62485e-06
2.76815e-05
2.4397e-06
2.7613e-05
2.29418e-06
2.20846e-06
2.50099e-05
1.7473e-07
2.50402e-05
5.31739e-07
2.50912e-05
8.92953e-07
2.51623e-05
1.25512e-06
2.52525e-05
1.6151e-06
2.53605e-05
1.96971e-06
2.54844e-05
2.31579e-06
2.56219e-05
2.65029e-06
2.57706e-05
2.97032e-06
2.59278e-05
3.27325e-06
2.60909e-05
3.55668e-06
2.62572e-05
3.81855e-06
2.6424e-05
4.0571e-06
2.6589e-05
4.27091e-06
2.67497e-05
4.45888e-06
2.69041e-05
4.62019e-06
2.70506e-05
4.75435e-06
2.71876e-05
4.86111e-06
2.73138e-05
4.94043e-06
2.74284e-05
4.99253e-06
2.75306e-05
5.01777e-06
2.762e-05
5.01667e-06
2.76965e-05
4.98991e-06
2.776e-05
4.93826e-06
2.78108e-05
4.86262e-06
2.78491e-05
4.76401e-06
2.78755e-05
4.64356e-06
2.78905e-05
4.50253e-06
2.78948e-05
4.3424e-06
2.78889e-05
4.16486e-06
2.78738e-05
3.9719e-06
2.78499e-05
3.76597e-06
2.78182e-05
3.55009e-06
2.77792e-05
3.32805e-06
2.77336e-05
3.10473e-06
2.76821e-05
2.88646e-06
2.76255e-05
2.6815e-06
2.75644e-05
2.50075e-06
2.74999e-05
2.35866e-06
2.27502e-06
2.50087e-05
1.6606e-07
2.50354e-05
5.05007e-07
2.50804e-05
8.47974e-07
2.51433e-05
1.19222e-06
2.52233e-05
1.53505e-06
2.53193e-05
1.87371e-06
2.54297e-05
2.20539e-06
2.55527e-05
2.52735e-06
2.56861e-05
2.83692e-06
2.58277e-05
3.13162e-06
2.59752e-05
3.40915e-06
2.61263e-05
3.66746e-06
2.62787e-05
3.90475e-06
2.64301e-05
4.11948e-06
2.65786e-05
4.31041e-06
2.67222e-05
4.47656e-06
2.68594e-05
4.6172e-06
2.69886e-05
4.73186e-06
2.71088e-05
4.8203e-06
2.72188e-05
4.88246e-06
2.73181e-05
4.91849e-06
2.74061e-05
4.92869e-06
2.74825e-05
4.91353e-06
2.75471e-05
4.87359e-06
2.76001e-05
4.80962e-06
2.76417e-05
4.72248e-06
2.7672e-05
4.61318e-06
2.76917e-05
4.48291e-06
2.7701e-05
4.33304e-06
2.77006e-05
4.16522e-06
2.76911e-05
3.98143e-06
2.7673e-05
3.78408e-06
2.76469e-05
3.57618e-06
2.76134e-05
3.36155e-06
2.75731e-05
3.14505e-06
2.75266e-05
2.93299e-06
2.74745e-05
2.7336e-06
2.74176e-05
2.55761e-06
2.7357e-05
2.41926e-06
2.33787e-06
2.50076e-05
1.5843e-07
2.50312e-05
4.81406e-07
2.5071e-05
8.08189e-07
2.51267e-05
1.1365e-06
2.51977e-05
1.46405e-06
2.5283e-05
1.78843e-06
2.53812e-05
2.10717e-06
2.54908e-05
2.41774e-06
2.561e-05
2.71772e-06
2.57369e-05
3.00472e-06
2.58695e-05
3.27655e-06
2.60058e-05
3.53118e-06
2.61438e-05
3.76677e-06
2.62815e-05
3.98174e-06
2.64172e-05
4.17472e-06
2.65492e-05
4.34459e-06
2.66759e-05
4.49047e-06
2.67961e-05
4.6117e-06
2.69086e-05
4.70783e-06
2.70124e-05
4.77863e-06
2.71069e-05
4.82403e-06
2.71914e-05
4.84416e-06
2.72656e-05
4.83929e-06
2.73294e-05
4.80985e-06
2.73826e-05
4.75643e-06
2.74253e-05
4.67977e-06
2.74577e-05
4.58076e-06
2.74801e-05
4.4605e-06
2.74929e-05
4.32029e-06
2.74964e-05
4.16172e-06
2.74911e-05
3.98673e-06
2.74774e-05
3.79773e-06
2.74559e-05
3.59771e-06
2.7427e-05
3.39048e-06
2.73911e-05
3.18088e-06
2.73489e-05
2.9752e-06
2.7301e-05
2.78157e-06
2.7248e-05
2.61056e-06
2.71911e-05
2.47613e-06
2.39711e-06
2.50067e-05
1.51685e-07
2.50277e-05
4.60476e-07
2.5063e-05
7.72873e-07
2.51125e-05
1.08702e-06
2.51755e-05
1.401e-06
2.52512e-05
1.7127e-06
2.53385e-05
2.0199e-06
2.54359e-05
2.32031e-06
2.5542e-05
2.61162e-06
2.56552e-05
2.8916e-06
2.57736e-05
3.15811e-06
2.58956e-05
3.40915e-06
2.60195e-05
3.64287e-06
2.61436e-05
3.85764e-06
2.62663e-05
4.05201e-06
2.63862e-05
4.22476e-06
2.65017e-05
4.37488e-06
2.66119e-05
4.50155e-06
2.67156e-05
4.60417e-06
2.68118e-05
4.68235e-06
2.69e-05
4.73585e-06
2.69795e-05
4.76463e-06
2.705e-05
4.76883e-06
2.71111e-05
4.74872e-06
2.71628e-05
4.70476e-06
2.7205e-05
4.63756e-06
2.72379e-05
4.54793e-06
2.72615e-05
4.43687e-06
2.72762e-05
4.30562e-06
2.72822e-05
4.15572e-06
2.72798e-05
3.98907e-06
2.72695e-05
3.80806e-06
2.72515e-05
3.61566e-06
2.72263e-05
3.41567e-06
2.71943e-05
3.21291e-06
2.71559e-05
3.01361e-06
2.71117e-05
2.82579e-06
2.70624e-05
2.65986e-06
2.70091e-05
2.52944e-06
2.45284e-06
2.5006e-05