/*--------------------------------*- C++ -*----------------------------------*\
| =========                 |                                                 |
| \\      /  F ield         | OpenFOAM: The Open Source CFD Toolbox           |
|  \\    /   O peration     | Version:  v2012                                 |
|   \\  /    A nd           | Website:  www.openfoam.com                      |
|    \\/     M anipulation  |                                                 |
\*---------------------------------------------------------------------------*/
FoamFile
{
    version     2.0;
    format      ascii;
    class       volVectorField;
    location    "0.65";
    object      U;
}
// * * * * * * * * * * * * * * * * * * * * * * * * * * * * * * * * * * * * * //

dimensions      [0 1 -1 0 0 0 0];


internalField   nonuniform List<vector> 
1600
(
(0.711037 0.139454 0)
(0.607771 0.126613 0)
(0.445318 0.0759452 0)
(0.325828 0.0431764 0)
(0.254696 0.0251422 0)
(0.209493 0.0153453 0)
(0.178295 0.00996217 0)
(0.155677 0.00690089 0)
(0.138598 0.00506131 0)
(0.125228 0.00388437 0)
(0.11446 0.00308573 0)
(0.105594 0.00251612 0)
(0.0981651 0.00209328 0)
(0.0918521 0.00176926 0)
(0.086424 0.00151461 0)
(0.081711 0.00131025 0)
(0.0775853 0.00114335 0)
(0.0739486 0.00100493 0)
(0.0707244 0.000888542 0)
(0.0678522 0.000789445 0)
(0.0652837 0.000704079 0)
(0.0629799 0.00062972 0)
(0.0609093 0.000564258 0)
(0.0590458 0.000506038 0)
(0.057368 0.000453748 0)
(0.0558583 0.000406347 0)
(0.0545017 0.000363014 0)
(0.0532856 0.000323116 0)
(0.0521993 0.000286202 0)
(0.0512329 0.000252002 0)
(0.0503773 0.000220461 0)
(0.0496233 0.000191788 0)
(0.0489608 0.000166552 0)
(0.0483778 0.00014586 0)
(0.0478591 0.00013157 0)
(0.0473852 0.000126547 0)
(0.0469318 0.000135721 0)
(0.0464496 0.000168688 0)
(0.0458325 0.000231656 0)
(0.0451735 0.00028767 0)
(0.990953 0.269779 0)
(0.984192 0.296549 0)
(0.868803 0.216299 0)
(0.739434 0.147751 0)
(0.633116 0.101115 0)
(0.549346 0.0707687 0)
(0.483317 0.0512197 0)
(0.431031 0.0384365 0)
(0.389133 0.0298107 0)
(0.355024 0.0237744 0)
(0.326815 0.0194 0)
(0.303149 0.0161296 0)
(0.283043 0.0136182 0)
(0.265771 0.011645 0)
(0.250792 0.0100643 0)
(0.237693 0.0087762 0)
(0.226158 0.00771087 0)
(0.215938 0.00681791 0)
(0.206837 0.00606024 0)
(0.198698 0.00541008 0)
(0.191395 0.00484623 0)
(0.184822 0.0043523 0)
(0.178898 0.00391545 0)
(0.17355 0.00352553 0)
(0.168721 0.00317446 0)
(0.164363 0.00285579 0)
(0.160434 0.00256447 0)
(0.156899 0.00229658 0)
(0.153728 0.00204934 0)
(0.150892 0.00182102 0)
(0.148366 0.00161109 0)
(0.146124 0.00142037 0)
(0.144138 0.00125133 0)
(0.142378 0.00110854 0)
(0.140806 0.000999072 0)
(0.139381 0.000932768 0)
(0.138056 0.000923308 0)
(0.136753 0.000989955 0)
(0.13532 0.00113351 0)
(0.13399 0.00125602 0)
(1.02867 0.225552 0)
(1.06695 0.333364 0)
(1.0327 0.306477 0)
(0.957533 0.25027 0)
(0.872318 0.19619 0)
(0.79073 0.152257 0)
(0.71778 0.118956 0)
(0.654633 0.0942963 0)
(0.600659 0.0760205 0)
(0.554607 0.0623157 0)
(0.515181 0.0518705 0)
(0.481233 0.0437687 0)
(0.451808 0.0373749 0)
(0.426131 0.0322466 0)
(0.403581 0.0280714 0)
(0.383659 0.0246254 0)
(0.365965 0.0217452 0)
(0.350177 0.0193098 0)
(0.336031 0.0172281 0)
(0.323313 0.0154306 0)
(0.311847 0.0138633 0)
(0.301487 0.0124842 0)
(0.292112 0.0112598 0)
(0.283621 0.0101634 0)
(0.275928 0.00917388 0)
(0.268963 0.00827406 0)
(0.262663 0.00745049 0)
(0.256976 0.00669274 0)
(0.251855 0.00599327 0)
(0.247259 0.00534733 0)
(0.243147 0.00475311 0)
(0.239481 0.00421199 0)
(0.236222 0.00372899 0)
(0.233326 0.00331323 0)
(0.230744 0.00297807 0)
(0.228424 0.00274053 0)
(0.226314 0.00261983 0)
(0.224328 0.00263236 0)
(0.222287 0.00275721 0)
(0.220512 0.002866 0)
(1.02441 0.165378 0)
(1.0707 0.308643 0)
(1.08302 0.33543 0)
(1.05663 0.310671 0)
(1.00622 0.268611 0)
(0.945589 0.225238 0)
(0.883211 0.1869 0)
(0.823611 0.155133 0)
(0.768812 0.129509 0)
(0.719417 0.109014 0)
(0.675314 0.092603 0)
(0.63608 0.0793802 0)
(0.60119 0.0686317 0)
(0.570113 0.0598073 0)
(0.542363 0.0524878 0)
(0.517512 0.0463544 0)
(0.49519 0.0411639 0)
(0.47508 0.0367292 0)
(0.456916 0.0329051 0)
(0.440472 0.0295783 0)
(0.425555 0.026659 0)
(0.412005 0.024076 0)
(0.399684 0.021772 0)
(0.388476 0.0197008 0)
(0.37828 0.0178251 0)
(0.369013 0.0161148 0)
(0.360599 0.0145459 0)
(0.352976 0.0130997 0)
(0.346087 0.0117626 0)
(0.339879 0.0105257 0)
(0.334306 0.00938505 0)
(0.32932 0.00834198 0)
(0.324874 0.00740342 0)
(0.32092 0.00658221 0)
(0.317402 0.00589669 0)
(0.314265 0.00536897 0)
(0.311457 0.00502106 0)
(0.308886 0.00486532 0)
(0.306344 0.0048686 0)
(0.304218 0.00490253 0)
(1.01625 0.123036 0)
(1.05677 0.268108 0)
(1.08815 0.326761 0)
(1.09274 0.331876 0)
(1.07274 0.309687 0)
(1.03665 0.276636 0)
(0.991907 0.241719 0)
(0.943793 0.209157 0)
(0.895677 0.18051 0)
(0.84949 0.156022 0)
(0.806203 0.135367 0)
(0.766199 0.118024 0)
(0.729524 0.103455 0)
(0.696043 0.0911721 0)
(0.66554 0.08076 0)
(0.637764 0.0718779 0)
(0.612464 0.0642483 0)
(0.589403 0.0576474 0)
(0.568363 0.0518945 0)
(0.549149 0.0468439 0)
(0.531589 0.0423772 0)
(0.515531 0.0383982 0)
(0.500844 0.0348281 0)
(0.487411 0.0316026 0)
(0.475133 0.0286688 0)
(0.463922 0.0259837 0)
(0.4537 0.0235127 0)
(0.4444 0.0212285 0)
(0.435962 0.0191108 0)
(0.42833 0.0171463 0)
(0.421453 0.0153283 0)
(0.41528 0.0136573 0)
(0.409763 0.0121412 0)
(0.404849 0.0107954 0)
(0.400485 0.00964178 0)
(0.396615 0.00870652 0)
(0.393188 0.00801473 0)
(0.390102 0.00757984 0)
(0.387123 0.00737141 0)
(0.384695 0.0072813 0)
(1.01025 0.0944572 0)
(1.04225 0.227937 0)
(1.07807 0.301291 0)
(1.09884 0.328261 0)
(1.10005 0.32557 0)
(1.08494 0.306491 0)
(1.05825 0.279989 0)
(1.02435 0.251467 0)
(0.986708 0.223842 0)
(0.947783 0.198484 0)
(0.909194 0.175878 0)
(0.871932 0.156041 0)
(0.836549 0.13877 0)
(0.803315 0.123776 0)
(0.772318 0.110755 0)
(0.743536 0.0994201 0)
(0.716887 0.0895169 0)
(0.692256 0.0808242 0)
(0.669514 0.0731542 0)
(0.648532 0.0663484 0)
(0.629183 0.0602737 0)
(0.61135 0.0548188 0)
(0.594924 0.0498903 0)
(0.579807 0.0454103 0)
(0.56591 0.0413138 0)
(0.553154 0.0375471 0)
(0.541467 0.0340664 0)
(0.530786 0.0308368 0)
(0.521052 0.0278322 0)
(0.512212 0.0250346 0)
(0.504216 0.0224346 0)
(0.497015 0.0200315 0)
(0.490562 0.0178336 0)
(0.484806 0.0158581 0)
(0.479697 0.0141302 0)
(0.47518 0.0126803 0)
(0.471206 0.0115392 0)
(0.467665 0.0107283 0)
(0.464296 0.0102322 0)
(0.4616 0.00997658 0)
(1.00654 0.0746501 0)
(1.03107 0.192932 0)
(1.06495 0.270497 0)
(1.09232 0.311116 0)
(1.10627 0.324069 0)
(1.10648 0.318682 0)
(1.09506 0.302464 0)
(1.07486 0.280777 0)
(1.04868 0.257105 0)
(1.01886 0.233535 0)
(0.987203 0.211205 0)
(0.955016 0.190651 0)
(0.923186 0.172052 0)
(0.892293 0.155385 0)
(0.862692 0.140523 0)
(0.834584 0.127295 0)
(0.808063 0.115517 0)
(0.783154 0.10501 0)
(0.759837 0.0956097 0)
(0.738066 0.0871674 0)
(0.717781 0.0795526 0)
(0.698914 0.0726517 0)
(0.681394 0.0663663 0)
(0.665154 0.0606124 0)
(0.650126 0.0553182 0)
(0.636249 0.0504233 0)
(0.623466 0.0458776 0)
(0.611724 0.0416409 0)
(0.600971 0.0376824 0)
(0.591163 0.0339807 0)
(0.582254 0.0305239 0)
(0.574202 0.0273104 0)
(0.566964 0.0243487 0)
(0.560496 0.0216581 0)
(0.55475 0.0192672 0)
(0.549677 0.0172122 0)
(0.545228 0.015533 0)
(0.541287 0.0142651 0)
(0.53757 0.0134181 0)
(0.534637 0.0129616 0)
(1.00434 0.0605541 0)
(1.02316 0.163897 0)
(1.05293 0.239888 0)
(1.08156 0.287716 0)
(1.10209 0.311761 0)
(1.11231 0.317907 0)
(1.11243 0.311769 0)
(1.10381 0.29796 0)
(1.08831 0.279912 0)
(1.06781 0.259993 0)
(1.04395 0.239734 0)
(1.01808 0.220063 0)
(0.99121 0.201493 0)
(0.964115 0.184267 0)
(0.937333 0.16846 0)
(0.91124 0.154045 0)
(0.886083 0.140944 0)
(0.862019 0.129047 0)
(0.839138 0.118239 0)
(0.817482 0.108401 0)
(0.797064 0.0994239 0)
(0.777874 0.0912039 0)
(0.75989 0.0836492 0)
(0.743082 0.0766775 0)
(0.727413 0.0702171 0)
(0.712848 0.0642059 0)
(0.699347 0.0585918 0)
(0.686874 0.0533318 0)
(0.675393 0.0483929 0)
(0.66487 0.0437516 0)
(0.655268 0.039395 0)
(0.646556 0.0353211 0)
(0.638697 0.0315393 0)
(0.631654 0.0280712 0)
(0.625387 0.02495 0)
(0.61985 0.0222196 0)
(0.615 0.0199322 0)
(0.610714 0.0181428 0)
(0.606693 0.0168936 0)
(0.603553 0.0162062 0)
(1.00303 0.0502001 0)
(1.01763 0.140199 0)
(1.043 0.211793 0)
(1.07029 0.262406 0)
(1.09342 0.293526 0)
(1.10952 0.308476 0)
(1.11761 0.311096 0)
(1.11795 0.30499 0)
(1.11149 0.293164 0)
(1.09953 0.277929 0)
(1.08335 0.260959 0)
(1.06413 0.243405 0)
(1.04289 0.22602 0)
(1.02044 0.209264 0)
(0.997419 0.193398 0)
(0.974304 0.178544 0)
(0.951459 0.164736 0)
(0.929144 0.151954 0)
(0.907544 0.140146 0)
(0.886784 0.12924 0)
(0.866947 0.119159 0)
(0.848083 0.109824 0)
(0.830221 0.101158 0)
(0.81337 0.0930889 0)
(0.797532 0.0855522 0)
(0.782697 0.0784896 0)
(0.768852 0.0718509 0)
(0.755981 0.0655943 0)
(0.744065 0.059687 0)
(0.733084 0.0541058 0)
(0.723016 0.0488381 0)
(0.713839 0.0438826 0)
(0.705527 0.0392507 0)
(0.698054 0.0349673 0)
(0.691384 0.0310716 0)
(0.685482 0.027617 0)
(0.680307 0.0246709 0)
(0.675733 0.0223125 0)
(0.671452 0.0206216 0)
(0.668137 0.0196792 0)
(1.0022 0.0423444 0)
(1.01373 0.12087 0)
(1.0351 0.186939 0)
(1.05995 0.237553 0)
(1.08335 0.272636 0)
(1.1024 0.293789 0)
(1.11556 0.303422 0)
(1.12235 0.304145 0)
(1.12303 0.29838 0)
(1.11831 0.288175 0)
(1.10906 0.27515 0)
(1.09624 0.260528 0)
(1.08071 0.245191 0)
(1.06323 0.229747 0)
(1.04446 0.214602 0)
(1.02491 0.200006 0)
(1.00503 0.186104 0)
(0.985124 0.172962 0)
(0.965461 0.160598 0)
(0.946229 0.148998 0)
(0.927571 0.138124 0)
(0.909592 0.127929 0)
(0.892367 0.118362 0)
(0.875949 0.109366 0)
(0.860374 0.10089 0)
(0.845662 0.0928853 0)
(0.831828 0.0853071 0)
(0.818878 0.0781186 0)
(0.806812 0.0712902 0)
(0.795626 0.064801 0)
(0.785315 0.0586408 0)
(0.775869 0.0528106 0)
(0.767275 0.047325 0)
(0.759515 0.0422135 0)
(0.752565 0.0375224 0)
(0.746396 0.0333167 0)
(0.740973 0.0296815 0)
(0.736171 0.0267232 0)
(0.731677 0.0245637 0)
(0.728221 0.0233485 0)
(1.00167 0.0362165 0)
(1.01091 0.105013 0)
(1.02887 0.165329 0)
(1.05099 0.214311 0)
(1.07339 0.251127 0)
(1.09346 0.276301 0)
(1.10951 0.291195 0)
(1.12064 0.297569 0)
(1.12661 0.29725 0)
(1.12767 0.291925 0)
(1.12433 0.283042 0)
(1.11724 0.271776 0)
(1.10708 0.259041 0)
(1.09451 0.245522 0)
(1.08011 0.231718 0)
(1.06441 0.217975 0)
(1.04785 0.204527 0)
(1.03079 0.191521 0)
(1.01352 0.179042 0)
(0.996283 0.16713 0)
(0.97927 0.155796 0)
(0.962629 0.145027 0)
(0.946474 0.1348 0)
(0.930896 0.125083 0)
(0.915963 0.115839 0)
(0.901727 0.107035 0)
(0.888226 0.0986352 0)
(0.875491 0.0906111 0)
(0.863541 0.0829389 0)
(0.852392 0.0756025 0)
(0.842052 0.0685958 0)
(0.832527 0.0619237 0)
(0.823815 0.0556055 0)
(0.815911 0.0496766 0)
(0.808801 0.0441921 0)
(0.802463 0.0392297 0)
(0.796871 0.0348944 0)
(0.791902 0.031322 0)
(0.787243 0.0286793 0)
(0.78368 0.0271808 0)
(1.0013 0.0313284 0)
(1.00882 0.0919016 0)
(1.02396 0.146675 0)
(1.0434 0.193147 0)
(1.06418 0.230182 0)
(1.08409 0.257679 0)
(1.10148 0.276279 0)
(1.11528 0.287078 0)
(1.12496 0.291372 0)
(1.13041 0.290474 0)
(1.13184 0.285596 0)
(1.12964 0.277792 0)
(1.12427 0.267936 0)
(1.11625 0.256725 0)
(1.10608 0.244701 0)
(1.09423 0.232271 0)
(1.08112 0.219732 0)
(1.06711 0.207295 0)
(1.05251 0.195102 0)
(1.03758 0.183246 0)
(1.02254 0.171778 0)
(1.00758 0.160726 0)
(0.992829 0.150094 0)
(0.97842 0.139878 0)
(0.964446 0.13006 0)
(0.950985 0.120622 0)
(0.938099 0.111543 0)
(0.92584 0.102804 0)
(0.914247 0.0943895 0)
(0.903354 0.0862905 0)
(0.893184 0.0785065 0)
(0.883756 0.0710483 0)
(0.875084 0.063941 0)
(0.867172 0.0572274 0)
(0.860017 0.0509723 0)
(0.853606 0.0452678 0)
(0.847922 0.0402399 0)
(0.842846 0.0360551 0)
(0.838072 0.0329274 0)
(0.834438 0.0311421 0)
(1.00104 0.0273589 0)
(1.00724 0.0809679 0)
(1.02005 0.130607 0)
(1.03705 0.174163 0)
(1.05598 0.21044 0)
(1.07503 0.239004 0)
(1.09271 0.260027 0)
(1.10794 0.274117 0)
(1.12002 0.282137 0)
(1.12864 0.285053 0)
(1.13376 0.283831 0)
(1.13553 0.279364 0)
(1.13424 0.272438 0)
(1.13027 0.263715 0)
(1.12399 0.253738 0)
(1.1158 0.24294 0)
(1.10607 0.231655 0)
(1.09514 0.220137 0)
(1.08332 0.208572 0)
(1.07086 0.197095 0)
(1.058 0.185798 0)
(1.04494 0.174739 0)
(1.03184 0.163956 0)
(1.01885 0.153466 0)
(1.00608 0.143275 0)
(0.993633 0.133382 0)
(0.981596 0.12378 0)
(0.970034 0.114463 0)
(0.959006 0.105426 0)
(0.94856 0.0966668 0)
(0.938737 0.0881936 0)
(0.929568 0.0800241 0)
(0.921078 0.0721903 0)
(0.913284 0.0647436 0)
(0.906192 0.0577597 0)
(0.8998 0.0513457 0)
(0.894098 0.0456495 0)
(0.888975 0.0408693 0)
(0.884132 0.0372663 0)
(0.880464 0.0351981 0)
(1.00084 0.0240884 0)
(1.00601 0.0717765 0)
(1.01691 0.116757 0)
(1.03174 0.157276 0)
(1.04879 0.1922 0)
(1.06662 0.220938 0)
(1.08393 0.243376 0)
(1.09969 0.259782 0)
(1.11318 0.270683 0)
(1.12393 0.276752 0)
(1.13176 0.278722 0)
(1.13664 0.277315 0)
(1.1387 0.273203 0)
(1.13817 0.266984 0)
(1.13533 0.259171 0)
(1.13048 0.250192 0)
(1.12393 0.240394 0)
(1.11597 0.230054 0)
(1.10689 0.219389 0)
(1.09693 0.208564 0)
(1.08634 0.197699 0)
(1.0753 0.186886 0)
(1.064 0.176185 0)
(1.05259 0.165638 0)
(1.0412 0.155273 0)
(1.02996 0.145105 0)
(1.01895 0.135143 0)
(1.00826 0.125394 0)
(0.997968 0.115863 0)
(0.988132 0.10656 0)
(0.978806 0.0974994 0)
(0.970035 0.0887079 0)
(0.961854 0.0802256 0)
(0.95429 0.0721132 0)
(0.94736 0.0644581 0)
(0.94107 0.0573831 0)
(0.93542 0.051058 0)
(0.930305 0.0457129 0)
(0.925441 0.0416557 0)
(0.921772 0.0393151 0)
(1.00069 0.0213619 0)
(1.00504 0.0639925 0)
(1.01436 0.104794 0)
(1.0273 0.142325 0)
(1.04256 0.175561 0)
(1.05899 0.203862 0)
(1.07552 0.226953 0)
(1.09121 0.244874 0)
(1.10535 0.257905 0)
(1.11742 0.266484 0)
(1.12712 0.271138 0)
(1.13433 0.272429 0)
(1.13903 0.270908 0)
(1.14134 0.267089 0)
(1.14142 0.261435 0)
(1.13951 0.254347 0)
(1.13583 0.246167 0)
(1.13063 0.237178 0)
(1.12416 0.227609 0)
(1.11664 0.217646 0)
(1.10829 0.207431 0)
(1.09931 0.197077 0)
(1.08987 0.186666 0)
(1.08014 0.176261 0)
(1.07024 0.165908 0)
(1.06031 0.155639 0)
(1.05046 0.145478 0)
(1.04078 0.135444 0)
(1.03135 0.125554 0)
(1.02225 0.115829 0)
(1.01355 0.106291 0)
(1.00529 0.0969772 0)
(0.997525 0.0879357 0)
(0.990289 0.0792374 0)
(0.983606 0.0709815 0)
(0.977493 0.0633069 0)
(0.971958 0.056405 0)
(0.966903 0.0505372 0)
(0.96206 0.0460566 0)
(0.958423 0.0434605 0)
(1.00058 0.0190665 0)
(1.00427 0.0573566 0)
(1.01227 0.0944336 0)
(1.02358 0.129116 0)
(1.03718 0.160505 0)
(1.05218 0.18797 0)
(1.06769 0.211156 0)
(1.08291 0.229959 0)
(1.09715 0.244482 0)
(1.1099 0.254984 0)
(1.12081 0.261824 0)
(1.12966 0.265417 0)
(1.13635 0.266198 0)
(1.14091 0.264593 0)
(1.14341 0.261003 0)
(1.14399 0.25579 0)
(1.14283 0.249272 0)
(1.14011 0.241725 0)
(1.13604 0.23338 0)
(1.13081 0.224429 0)
(1.12462 0.215029 0)
(1.11765 0.205306 0)
(1.11006 0.195361 0)
(1.10202 0.185271 0)
(1.09366 0.175097 0)
(1.08512 0.164887 0)
(1.0765 0.154679 0)
(1.06791 0.144503 0)
(1.05944 0.134388 0)
(1.05117 0.124363 0)
(1.04318 0.114464 0)
(1.03552 0.104732 0)
(1.02826 0.0952283 0)
(1.02143 0.0860321 0)
(1.01506 0.0772554 0)
(1.00919 0.0690525 0)
(1.00383 0.0616364 0)
(0.998878 0.0552977 0)
(0.994096 0.0504328 0)
(0.990523 0.0476034 0)
(1.00049 0.017118 0)
(1.00364 0.0516662 0)
(1.01055 0.0854352 0)
(1.02043 0.117456 0)
(1.03253 0.146953 0)
(1.04614 0.173337 0)
(1.06053 0.196223 0)
(1.07501 0.21542 0)
(1.08898 0.230914 0)
(1.10194 0.242829 0)
(1.11351 0.251391 0)
(1.12343 0.256891 0)
(1.13156 0.259659 0)
(1.13783 0.260035 0)
(1.14225 0.258354 0)
(1.14489 0.25493 0)
(1.14587 0.250049 0)
(1.14531 0.243968 0)
(1.14338 0.23691 0)
(1.14024 0.229066 0)
(1.13605 0.220596 0)
(1.13098 0.211636 0)
(1.12518 0.202295 0)
(1.11879 0.192663 0)
(1.11196 0.182814 0)
(1.10481 0.172805 0)
(1.09746 0.162688 0)
(1.09 0.152503 0)
(1.08254 0.14229 0)
(1.07517 0.132088 0)
(1.06795 0.121939 0)
(1.06096 0.111898 0)
(1.05426 0.102031 0)
(1.0479 0.0924299 0)
(1.04191 0.0832183 0)
(1.03633 0.0745657 0)
(1.03118 0.0667051 0)
(1.02638 0.0599549 0)
(1.0217 0.0547514 0)
(1.01821 0.0517152 0)
(1.00041 0.0154525 0)
(1.00312 0.0467614 0)
(1.00911 0.0775974 0)
(1.01777 0.107164 0)
(1.02852 0.134798 0)
(1.0408 0.159966 0)
(1.05403 0.182281 0)
(1.06764 0.201509 0)
(1.08108 0.217559 0)
(1.09389 0.230458 0)
(1.10571 0.24033 0)
(1.11626 0.247366 0)
(1.12534 0.251804 0)
(1.13285 0.253907 0)
(1.13874 0.253942 0)
(1.14302 0.252175 0)
(1.14576 0.248855 0)
(1.14703 0.244212 0)
(1.14696 0.238452 0)
(1.14566 0.231759 0)
(1.14329 0.22429 0)
(1.13996 0.216181 0)
(1.13583 0.207548 0)
(1.13102 0.198487 0)
(1.12566 0.18908 0)
(1.11987 0.179395 0)
(1.11377 0.16949 0)
(1.10746 0.159416 0)
(1.10103 0.149222 0)
(1.09457 0.138955 0)
(1.08817 0.128668 0)
(1.08188 0.118421 0)
(1.07579 0.108291 0)
(1.06994 0.0983802 0)
(1.06437 0.0888227 0)
(1.05912 0.0798029 0)
(1.05423 0.0715723 0)
(1.0496 0.0644751 0)
(1.04504 0.0589832 0)
(1.04167 0.05577 0)
(1.00035 0.0140206 0)
(1.00269 0.0425148 0)
(1.0079 0.0707522 0)
(1.0155 0.098076 0)
(1.02504 0.123921 0)
(1.0361 0.147813 0)
(1.04819 0.169383 0)
(1.06084 0.188379 0)
(1.07359 0.204663 0)
(1.08601 0.218195 0)
(1.09777 0.229024 0)
(1.10858 0.237261 0)
(1.11823 0.243069 0)
(1.12657 0.246641 0)
(1.13353 0.248184 0)
(1.13906 0.247915 0)
(1.1432 0.246043 0)
(1.14597 0.242769 0)
(1.14746 0.238278 0)
(1.14776 0.232738 0)
(1.14698 0.226299 0)
(1.14522 0.219094 0)
(1.1426 0.211238 0)
(1.13925 0.202831 0)
(1.13527 0.193959 0)
(1.13078 0.184695 0)
(1.12589 0.175105 0)
(1.12069 0.165247 0)
(1.11527 0.155177 0)
(1.10973 0.14495 0)
(1.10415 0.134625 0)
(1.09859 0.124272 0)
(1.09312 0.113977 0)
(1.08781 0.103849 0)
(1.08268 0.0940348 0)
(1.0778 0.0847314 0)
(1.07318 0.0762077 0)
(1.06876 0.0688304 0)
(1.06435 0.0631032 0)
(1.06112 0.0597449 0)
(1.0003 0.0127833 0)
(1.00233 0.0388241 0)
(1.00688 0.0647594 0)
(1.01356 0.0900455 0)
(1.02203 0.114203 0)
(1.03195 0.136813 0)
(1.04295 0.157534 0)
(1.05462 0.176114 0)
(1.06658 0.192388 0)
(1.07845 0.206274 0)
(1.08992 0.217764 0)
(1.10071 0.226911 0)
(1.11061 0.233815 0)
(1.11945 0.238609 0)
(1.12712 0.24145 0)
(1.13357 0.242506 0)
(1.13877 0.241949 0)
(1.14274 0.239948 0)
(1.14551 0.236663 0)
(1.14714 0.232246 0)
(1.14771 0.226835 0)
(1.14732 0.220555 0)
(1.14606 0.213515 0)
(1.14402 0.205817 0)
(1.1413 0.197546 0)
(1.13802 0.188779 0)
(1.13425 0.179587 0)
(1.13011 0.170032 0)
(1.12567 0.160176 0)
(1.12102 0.15008 0)
(1.11624 0.139811 0)
(1.1114 0.129445 0)
(1.10657 0.119074 0)
(1.10179 0.108819 0)
(1.09713 0.098834 0)
(1.09262 0.0893295 0)
(1.0883 0.0805892 0)
(1.0841 0.0729995 0)
(1.07986 0.0670911 0)
(1.07678 0.0636202 0)
(1.00026 0.01171 0)
(1.00203 0.0356062 0)
(1.006 0.0595021 0)
(1.01189 0.0829452 0)
(1.0194 0.105528 0)
(1.02829 0.126886 0)
(1.03826 0.146708 0)
(1.04897 0.164749 0)
(1.06009 0.180834 0)
(1.0713 0.194856 0)
(1.08231 0.206767 0)
(1.09287 0.216576 0)
(1.10277 0.224333 0)
(1.11184 0.230124 0)
(1.11994 0.234059 0)
(1.127 0.236266 0)
(1.13298 0.23688 0)
(1.13784 0.236038 0)
(1.14162 0.233878 0)
(1.14433 0.23053 0)
(1.14604 0.226118 0)
(1.1468 0.220754 0)
(1.1467 0.214545 0)
(1.14582 0.207584 0)
(1.14423 0.199958 0)
(1.14203 0.191743 0)
(1.13931 0.183012 0)
(1.13614 0.17383 0)
(1.13262 0.164263 0)
(1.12882 0.154378 0)
(1.12481 0.144245 0)
(1.12067 0.133948 0)
(1.11645 0.123586 0)
(1.11221 0.113286 0)
(1.108 0.103213 0)
(1.10387 0.0935858 0)
(1.09985 0.0847029 0)
(1.09589 0.076967 0)
(1.09184 0.0709306 0)
(1.08892 0.0673796 0)
(1.00023 0.0107756 0)
(1.00177 0.0327932 0)
(1.00525 0.054882 0)
(1.01044 0.0766638 0)
(1.01711 0.0977928 0)
(1.02507 0.117951 0)
(1.03407 0.136858 0)
(1.04384 0.154286 0)
(1.05411 0.170057 0)
(1.0646 0.184049 0)
(1.07505 0.196189 0)
(1.08523 0.206453 0)
(1.09494 0.214855 0)
(1.104 0.221441 0)
(1.11229 0.226283 0)
(1.11972 0.229472 0)
(1.1262 0.231111 0)
(1.13171 0.231309 0)
(1.13624 0.230177 0)
(1.1398 0.227826 0)
(1.14242 0.224364 0)
(1.14413 0.219891 0)
(1.14501 0.214503 0)
(1.14511 0.208288 0)
(1.14451 0.201329 0)
(1.14327 0.193701 0)
(1.14148 0.185475 0)
(1.1392 0.176719 0)
(1.13651 0.167501 0)
(1.1335 0.157891 0)
(1.13021 0.147965 0)
(1.12672 0.137809 0)
(1.12309 0.12753 0)
(1.11937 0.117261 0)
(1.11561 0.107174 0)
(1.11185 0.0974981 0)
(1.10814 0.0885424 0)
(1.10442 0.0807231 0)
(1.10056 0.0746098 0)
(1.09782 0.0710099 0)
(1.0002 0.00996021 0)
(1.00154 0.0303289 0)
(1.0046 0.0508163 0)
(1.00918 0.0711046 0)
(1.0151 0.0908993 0)
(1.02221 0.109924 0)
(1.03032 0.12793 0)
(1.0392 0.144705 0)
(1.04863 0.160077 0)
(1.05837 0.173917 0)
(1.06818 0.186137 0)
(1.07787 0.19669 0)
(1.08725 0.20556 0)
(1.09614 0.212765 0)
(1.10443 0.218346 0)
(1.112 0.22236 0)
(1.11877 0.224884 0)
(1.1247 0.225998 0)
(1.12976 0.225793 0)
(1.13395 0.224358 0)
(1.13726 0.221784 0)
(1.13974 0.218158 0)
(1.14141 0.213566 0)
(1.14233 0.208088 0)
(1.14256 0.201801 0)
(1.14214 0.194776 0)
(1.14116 0.187083 0)
(1.13967 0.178791 0)
(1.13773 0.169967 0)
(1.13542 0.160684 0)
(1.13279 0.15102 0)
(1.12991 0.141067 0)
(1.12683 0.130935 0)
(1.1236 0.120763 0)
(1.12027 0.11073 0)
(1.11688 0.101073 0)
(1.11346 0.0921081 0)
(1.10998 0.0842636 0)
(1.10632 0.0781208 0)
(1.10376 0.0745012 0)
(1.00017 0.00924718 0)
(1.00135 0.0281669 0)
(1.00404 0.047235 0)
(1.00808 0.0661834 0)
(1.01333 0.0847609 0)
(1.01968 0.102728 0)
(1.02697 0.119863 0)
(1.03501 0.135973 0)
(1.04362 0.150894 0)
(1.0526 0.164496 0)
(1.06175 0.176683 0)
(1.07087 0.187391 0)
(1.07981 0.196586 0)
(1.0884 0.20426 0)
(1.09652 0.21043 0)
(1.10407 0.215128 0)
(1.11095 0.218405 0)
(1.1171 0.220318 0)
(1.1225 0.220936 0)
(1.12711 0.22033 0)
(1.13093 0.218573 0)
(1.13398 0.215741 0)
(1.13628 0.211907 0)
(1.13786 0.207143 0)
(1.13876 0.201517 0)
(1.13904 0.195098 0)
(1.13874 0.187952 0)
(1.13792 0.180146 0)
(1.13664 0.171747 0)
(1.13496 0.162829 0)
(1.13292 0.153473 0)
(1.13059 0.143772 0)
(1.12801 0.133841 0)
(1.12523 0.123823 0)
(1.12229 0.113902 0)
(1.11924 0.104322 0)
(1.11612 0.095406 0)
(1.11287 0.0875886 0)
(1.10942 0.0814592 0)
(1.10703 0.0778464 0)
(1.00015 0.00862283 0)
(1.00118 0.0262678 0)
(1.00355 0.0440783 0)
(1.00712 0.061827 0)
(1.01177 0.079299 0)
(1.01743 0.0962865 0)
(1.02397 0.112594 0)
(1.03123 0.128046 0)
(1.03906 0.142489 0)
(1.04729 0.155796 0)
(1.05575 0.167867 0)
(1.06427 0.178628 0)
(1.07269 0.188031 0)
(1.08088 0.19605 0)
(1.08872 0.202682 0)
(1.0961 0.207938 0)
(1.10293 0.211848 0)
(1.10915 0.214449 0)
(1.1147 0.21579 0)
(1.11957 0.215925 0)
(1.12373 0.214912 0)
(1.12718 0.212813 0)
(1.12994 0.20969 0)
(1.13202 0.205605 0)
(1.13346 0.20062 0)
(1.1343 0.194796 0)
(1.13456 0.188198 0)
(1.13431 0.180887 0)
(1.13359 0.172933 0)
(1.13244 0.164406 0)
(1.13092 0.15539 0)
(1.12907 0.145979 0)
(1.12694 0.136292 0)
(1.12457 0.126475 0)
(1.122 0.116717 0)
(1.11927 0.107264 0)
(1.11642 0.0984465 0)
(1.1134 0.090702 0)
(1.11014 0.0846238 0)
(1.10794 0.0810409 0)
(1.00013 0.00807565 0)
(1.00104 0.0245986 0)
(1.00312 0.0412949 0)
(1.00627 0.0579712 0)
(1.0104 0.0744434 0)
(1.01544 0.090531 0)
(1.02129 0.106062 0)
(1.02782 0.120876 0)
(1.03492 0.134834 0)
(1.04242 0.147812 0)
(1.05018 0.159709 0)
(1.05807 0.170447 0)
(1.06594 0.179966 0)
(1.07366 0.188229 0)
(1.08113 0.195215 0)
(1.08823 0.200921 0)
(1.09488 0.205357 0)
(1.10103 0.208544 0)
(1.1066 0.210514 0)
(1.11157 0.211305 0)
(1.11592 0.210962 0)
(1.11962 0.209532 0)
(1.12269 0.207067 0)
(1.12514 0.20362 0)
(1.12698 0.199244 0)
(1.12824 0.193997 0)
(1.12896 0.187935 0)
(1.12916 0.18112 0)
(1.1289 0.173617 0)
(1.12821 0.165496 0)
(1.12713 0.156842 0)
(1.1257 0.14775 0)
(1.12396 0.13834 0)
(1.12195 0.128761 0)
(1.11971 0.119205 0)
(1.11727 0.109922 0)
(1.11467 0.101244 0)
(1.11186 0.0936108 0)
(1.1088 0.0876158 0)
(1.10678 0.0840826 0)
(1.00011 0.00759586 0)
(1.00091 0.0231308 0)
(1.00274 0.0388402 0)
(1.00552 0.0545594 0)
(1.00918 0.0701305 0)
(1.01366 0.0853967 0)
(1.01889 0.100206 0)
(1.02476 0.114415 0)
(1.03115 0.127894 0)
(1.03796 0.140527 0)
(1.04505 0.152214 0)
(1.0523 0.162873 0)
(1.05958 0.172439 0)
(1.06679 0.180864 0)
(1.07381 0.188117 0)
(1.08055 0.19418 0)
(1.08694 0.199049 0)
(1.09289 0.202731 0)
(1.09837 0.205243 0)
(1.10332 0.20661 0)
(1.10771 0.206862 0)
(1.11154 0.206037 0)
(1.11479 0.204175 0)
(1.11747 0.201319 0)
(1.11959 0.197517 0)
(1.12116 0.192818 0)
(1.12222 0.187275 0)
(1.12278 0.180945 0)
(1.12288 0.17389 0)
(1.12255 0.166182 0)
(1.12184 0.157901 0)
(1.12076 0.149145 0)
(1.11936 0.140036 0)
(1.11767 0.130722 0)
(1.11572 0.121399 0)
(1.11354 0.112319 0)
(1.11117 0.103814 0)
(1.10857 0.0963242 0)
(1.10569 0.0904386 0)
(1.10385 0.0869712 0)
(1.0001 0.00717502 0)
(1.0008 0.0218395 0)
(1.00241 0.036675 0)
(1.00487 0.0515413 0)
(1.00811 0.066303 0)
(1.01209 0.0808237 0)
(1.01675 0.0949693 0)
(1.022 0.108611 0)
(1.02775 0.12163 0)
(1.03389 0.133915 0)
(1.04033 0.145371 0)
(1.04694 0.155915 0)
(1.05363 0.165477 0)
(1.06029 0.174002 0)
(1.06682 0.181451 0)
(1.07315 0.187794 0)
(1.07918 0.193017 0)
(1.08487 0.197114 0)
(1.09014 0.20009 0)
(1.09496 0.201957 0)
(1.09931 0.202736 0)
(1.10314 0.202452 0)
(1.10646 0.201136 0)
(1.10926 0.198823 0)
(1.11154 0.195554 0)
(1.11332 0.19137 0)
(1.11461 0.18632 0)
(1.11543 0.180457 0)
(1.11581 0.173841 0)
(1.11577 0.166541 0)
(1.11534 0.158637 0)
(1.11456 0.150226 0)
(1.11344 0.141431 0)
(1.11202 0.132402 0)
(1.11032 0.123335 0)
(1.10837 0.114482 0)
(1.10621 0.106175 0)
(1.1038 0.0988529 0)
(1.1011 0.093097 0)
(1.09943 0.0897078 0)
(1.00009 0.00680568 0)
(1.0007 0.0207027 0)
(1.00213 0.0347643 0)
(1.0043 0.0488715 0)
(1.00717 0.0629084 0)
(1.0107 0.0767564 0)
(1.01485 0.0902971 0)
(1.01953 0.103415 0)
(1.02468 0.115999 0)
(1.0302 0.127946 0)
(1.03601 0.139165 0)
(1.04201 0.149571 0)
(1.0481 0.159093 0)
(1.0542 0.167672 0)
(1.06021 0.17526 0)
(1.06607 0.181822 0)
(1.0717 0.187332 0)
(1.07705 0.191775 0)
(1.08204 0.195145 0)
(1.08666 0.197445 0)
(1.09085 0.198685 0)
(1.0946 0.198882 0)
(1.09789 0.198057 0)
(1.10071 0.196237 0)
(1.10306 0.193456 0)
(1.10495 0.189751 0)
(1.10638 0.185164 0)
(1.10738 0.179745 0)
(1.10795 0.173551 0)
(1.10813 0.166648 0)
(1.10792 0.159116 0)
(1.10737 0.151052 0)
(1.10648 0.142576 0)
(1.10528 0.133842 0)
(1.10379 0.125044 0)
(1.10205 0.116435 0)
(1.10009 0.108346 0)
(1.09784 0.101208 0)
(1.09532 0.0955968 0)
(1.09381 0.0922949 0)
(1.00008 0.0064811 0)
(1.00062 0.0197005 0)
(1.00188 0.0330762 0)
(1.0038 0.0465085 0)
(1.00634 0.0598984 0)
(1.00948 0.0731429 0)
(1.01316 0.0861368 0)
(1.01734 0.0987755 0)
(1.02193 0.110957 0)
(1.02687 0.122585 0)
(1.03208 0.133569 0)
(1.03748 0.143828 0)
(1.04298 0.153288 0)
(1.04852 0.161888 0)
(1.054 0.169573 0)
(1.05937 0.176303 0)
(1.06456 0.182045 0)
(1.06951 0.186775 0)
(1.07418 0.190479 0)
(1.07851 0.193152 0)
(1.08248 0.194794 0)
(1.08607 0.195414 0)
(1.08924 0.195026 0)
(1.09201 0.19365 0)
(1.09434 0.191314 0)
(1.09626 0.188048 0)
(1.09776 0.18389 0)
(1.09885 0.178887 0)
(1.09955 0.173092 0)
(1.09988 0.16657 0)
(1.09983 0.159399 0)
(1.09945 0.151675 0)
(1.09874 0.143518 0)
(1.09773 0.135082 0)
(1.09643 0.12656 0)
(1.09486 0.118205 0)
(1.09306 0.110343 0)
(1.09098 0.103402 0)
(1.08862 0.0979444 0)
(1.08727 0.0947356 0)
(1.00007 0.00619498 0)
(1.00055 0.0188141 0)
(1.00166 0.0315811 0)
(1.00337 0.0444136 0)
(1.00563 0.0572278 0)
(1.00841 0.0699342 0)
(1.01169 0.0824388 0)
(1.01539 0.0946463 0)
(1.01948 0.106462 0)
(1.02388 0.117795 0)
(1.02853 0.128557 0)
(1.03336 0.138668 0)
(1.03829 0.148055 0)
(1.04327 0.156653 0)
(1.04822 0.164405 0)
(1.05308 0.171265 0)
(1.05781 0.177193 0)
(1.06233 0.182161 0)
(1.06662 0.186148 0)
(1.07063 0.189139 0)
(1.07432 0.191129 0)
(1.07768 0.192119 0)
(1.08068 0.192117 0)
(1.08332 0.191138 0)
(1.08557 0.189201 0)
(1.08745 0.186334 0)
(1.08895 0.18257 0)
(1.09008 0.177952 0)
(1.09084 0.17253 0)
(1.09125 0.166367 0)
(1.09132 0.15954 0)
(1.09106 0.152144 0)
(1.09049 0.144299 0)
(1.08963 0.136156 0)
(1.08848 0.127911 0)
(1.08707 0.119812 0)
(1.08542 0.112183 0)
(1.08348 0.105444 0)
(1.08128 0.100146 0)
(1.08008 0.0970338 0)
(1.00006 0.00594114 0)
(1.00049 0.0180256 0)
(1.00149 0.0302505 0)
(1.00301 0.0425501 0)
(1.00502 0.0548541 0)
(1.0075 0.0670841 0)
(1.01041 0.0791555 0)
(1.0137 0.0909803 0)
(1.01732 0.10247 0)
(1.02122 0.113536 0)
(1.02535 0.124094 0)
(1.02963 0.134066 0)
(1.03402 0.143376 0)
(1.03846 0.15196 0)
(1.04288 0.159757 0)
(1.04724 0.166718 0)
(1.05148 0.172798 0)
(1.05556 0.177963 0)
(1.05945 0.182187 0)
(1.06309 0.18545 0)
(1.06647 0.187739 0)
(1.06956 0.189052 0)
(1.07234 0.189389 0)
(1.0748 0.18876 0)
(1.07692 0.18718 0)
(1.0787 0.184671 0)
(1.08015 0.181264 0)
(1.08125 0.176997 0)
(1.08203 0.171919 0)
(1.08248 0.16609 0)
(1.08262 0.159586 0)
(1.08245 0.152501 0)
(1.08198 0.144954 0)
(1.08123 0.137097 0)
(1.08021 0.129122 0)
(1.07893 0.121277 0)
(1.07741 0.11388 0)
(1.07561 0.107345 0)
(1.07355 0.102209 0)
(1.0725 0.0991935 0)
(1.00005 0.00571328 0)
(1.00044 0.0173168 0)
(1.00135 0.0290563 0)
(1.00272 0.0408825 0)
(1.00453 0.0527365 0)
(1.00674 0.0645488 0)
(1.00932 0.0762418 0)
(1.01224 0.0877327 0)
(1.01544 0.0989367 0)
(1.01889 0.109769 0)
(1.02252 0.120147 0)
(1.0263 0.129992 0)
(1.03017 0.139231 0)
(1.03409 0.147795 0)
(1.038 0.155624 0)
(1.04186 0.162663 0)
(1.04563 0.168867 0)
(1.04926 0.174196 0)
(1.05273 0.17862 0)
(1.05599 0.182113 0)
(1.05903 0.18466 0)
(1.06182 0.186251 0)
(1.06434 0.186883 0)
(1.06658 0.186561 0)
(1.06853 0.185295 0)
(1.07018 0.183105 0)
(1.07153 0.180018 0)
(1.07258 0.176068 0)
(1.07333 0.171303 0)
(1.07378 0.16578 0)
(1.07395 0.159575 0)
(1.07383 0.152781 0)
(1.07344 0.145515 0)
(1.07278 0.13793 0)
(1.07186 0.130215 0)
(1.0707 0.122616 0)
(1.06931 0.115448 0)
(1.06763 0.109114 0)
(1.06571 0.104138 0)
(1.0648 0.101219 0)
(1.00005 0.00550443 0)
(1.00041 0.0166686 0)
(1.00125 0.0279702 0)
(1.0025 0.0393758 0)
(1.00414 0.0508356 0)
(1.00612 0.0622863 0)
(1.00843 0.0736544 0)
(1.01101 0.0848603 0)
(1.01384 0.0958214 0)
(1.01687 0.106455 0)
(1.02006 0.116679 0)
(1.02337 0.126415 0)
(1.02675 0.13559 0)
(1.03018 0.144135 0)
(1.0336 0.151987 0)
(1.03698 0.159091 0)
(1.04028 0.165397 0)
(1.04348 0.170863 0)
(1.04653 0.175455 0)
(1.04941 0.179145 0)
(1.0521 0.181911 0)
(1.05457 0.183741 0)
(1.05682 0.184628 0)
(1.05882 0.184572 0)
(1.06057 0.183581 0)
(1.06206 0.181672 0)
(1.06329 0.178867 0)
(1.06425 0.1752 0)
(1.06494 0.170716 0)
(1.06537 0.16547 0)
(1.06554 0.159538 0)