/*--------------------------------*- C++ -*----------------------------------*\
| =========                 |                                                 |
| \\      /  F ield         | OpenFOAM: The Open Source CFD Toolbox           |
|  \\    /   O peration     | Version:  v2012                                 |
|   \\  /    A nd           | Website:  www.openfoam.com                      |
|    \\/     M anipulation  |                                                 |
\*---------------------------------------------------------------------------*/
FoamFile
{
    version     2.0;
    format      ascii;
    class       volScalarField;
    location    "0.6";
    object      p;
}
// * * * * * * * * * * * * * * * * * * * * * * * * * * * * * * * * * * * * * //

dimensions      [0 2 -2 0 0 0 0];


internalField   nonuniform List<scalar> 
1600
(
-5.06677e-08
-4.75927
-7.11116
-8.08375
-8.59957
-8.91443
-9.11694
-9.25663
-9.35978
-9.43977
-9.50397
-9.55688
-9.60139
-9.63948
-9.67253
-9.70155
-9.72731
-9.75039
-9.77125
-9.79024
-9.80767
-9.82376
-9.83873
-9.85273
-9.86593
-9.87844
-9.89039
-9.90188
-9.91301
-9.92388
-9.93458
-9.94519
-9.95581
-9.96651
-9.97735
-9.98833
-9.99938
-10.0105
-10.0212
-10.0282
-3.82628
-5.73079
-7.04157
-7.81176
-8.32499
-8.68005
-8.92725
-9.10483
-9.23742
-9.33976
-9.421
-9.48706
-9.5419
-9.58823
-9.62797
-9.6625
-9.69284
-9.7198
-9.74396
-9.7658
-9.78571
-9.80399
-9.82089
-9.83663
-9.85139
-9.86532
-9.87856
-9.89124
-9.90347
-9.91534
-9.92696
-9.93841
-9.94976
-9.96109
-9.97244
-9.98379
-9.99507
-10.0064
-10.0178
-10.0255
-6.08905
-6.68321
-7.33341
-7.86794
-8.28515
-8.60279
-8.84196
-9.02375
-9.16443
-9.27543
-9.36469
-9.43778
-9.49864
-9.5501
-9.5942
-9.63245
-9.66599
-9.69571
-9.72228
-9.74623
-9.76801
-9.78794
-9.80633
-9.82341
-9.83938
-9.85442
-9.86867
-9.88228
-9.89537
-9.90803
-9.92037
-9.93248
-9.94443
-9.95629
-9.9681
-9.97986
-9.99152
-10.0033
-10.0157
-10.0241
-7.24293
-7.38984
-7.71501
-8.06405
-8.37031
-8.62442
-8.83067
-8.99689
-9.1312
-9.2406
-9.33064
-9.40563
-9.46881
-9.52268
-9.56911
-9.60953
-9.64508
-9.67662
-9.70483
-9.73028
-9.75341
-9.77457
-9.79408
-9.81218
-9.82909
-9.845
-9.86006
-9.87441
-9.88817
-9.90146
-9.91439
-9.92703
-9.93947
-9.95179
-9.96403
-9.97623
-9.98836
-10.0008
-10.0141
-10.023
-7.90975
-7.90083
-8.0556
-8.27392
-8.48953
-8.68455
-8.85441
-8.99907
-9.12107
-9.22383
-9.31064
-9.38442
-9.44756
-9.50203
-9.54941
-9.59096
-9.62768
-9.66038
-9.68973
-9.71626
-9.7404
-9.76252
-9.78291
-9.80185
-9.81953
-9.83616
-9.85189
-9.86686
-9.88121
-9.89505
-9.90848
-9.9216
-9.93448
-9.94722
-9.95989
-9.97251
-9.98512
-9.99819
-10.0123
-10.0217
-8.32781
-8.26967
-8.33545
-8.46821
-8.61679
-8.76305
-8.89905
-9.02103
-9.12824
-9.2216
-9.30261
-9.37297
-9.43423
-9.48783
-9.53497
-9.57668
-9.6138
-9.64706
-9.67704
-9.70423
-9.72905
-9.75183
-9.77288
-9.79244
-9.81072
-9.82792
-9.84419
-9.85967
-9.8745
-9.88879
-9.90265
-9.91617
-9.92944
-9.94255
-9.95559
-9.96862
-9.98168
-9.99531
-10.0102
-10.0198
-8.60387
-8.53769
-8.55968
-8.6392
-8.74045
-8.84853
-8.95537
-9.05597
-9.14796
-9.2307
-9.30445
-9.36993
-9.428
-9.47957
-9.5255
-9.56655
-9.6034
-9.63664
-9.66677
-9.69423
-9.71939
-9.74256
-9.76401
-9.78399
-9.80269
-9.8203
-9.83696
-9.85284
-9.86804
-9.88268
-9.89688
-9.91072
-9.92431
-9.93773
-9.95109
-9.96446
-9.97791
-9.99203
-10.0075
-10.0173
-8.79721
-8.7367
-8.73809
-8.78516
-8.85385
-8.93316
-9.0162
-9.09803
-9.1757
-9.24777
-9.31371
-9.37354
-9.4276
-9.47635
-9.52034
-9.5601
-9.59611
-9.62886
-9.65873
-9.68611
-9.7113
-9.73459
-9.75622
-9.77642
-9.79536
-9.81322
-9.83016
-9.84629
-9.86175
-9.87665
-9.8911
-9.90518
-9.91901
-9.93268
-9.94629
-9.95993
-9.97368
-9.98819
-10.0042
-10.0139
-8.94024
-8.88854
-8.88071
-8.90809
-8.95471
-9.01284
-9.07708
-9.14313
-9.20804
-9.27007
-9.32825
-9.38219
-9.43181
-9.47726
-9.51882
-9.55681
-9.59156
-9.62342
-9.65269
-9.67968
-9.70463
-9.72781
-9.74941
-9.76964
-9.78866
-9.80664
-9.8237
-9.83998
-9.85559
-9.87065
-9.88525
-9.89949
-9.91348
-9.92731
-9.9411
-9.95493
-9.96889
-9.98368
-9.99998
-10.0097
-9.05071
-9.00747
-8.99596
-9.01144
-9.04315
-9.08586
-9.13553
-9.18865
-9.24257
-9.29553
-9.3464
-9.39451
-9.43957
-9.48148
-9.52031
-9.55621
-9.58938
-9.62004
-9.64843
-9.67477
-9.69926
-9.72211
-9.74349
-9.76358
-9.78252
-9.80047
-9.81753
-9.83384
-9.8495
-9.86461
-9.87928
-9.89359
-9.90766
-9.92157
-9.93545
-9.94938
-9.96345
-9.9784
-9.99487
-10.0043
-9.13889
-9.10286
-9.09036
-9.09863
-9.12028
-9.15181
-9.1903
-9.23299
-9.27765
-9.32264
-9.36681
-9.40941
-9.44998
-9.48828
-9.52422
-9.55783
-9.5892
-9.61845
-9.64573
-9.6712
-9.69503
-9.71737
-9.73836
-9.75816
-9.77688
-9.79466
-9.81161
-9.82783
-9.84343
-9.8585
-9.87314
-9.88744
-9.90149
-9.9154
-9.92928
-9.94321
-9.95729
-9.97227
-9.98878
-9.99794
-9.21109
-9.18098
-9.16873
-9.17265
-9.18747
-9.2109
-9.24085
-9.27521
-9.31217
-9.35028
-9.38848
-9.42598
-9.46228
-9.49702
-9.53005
-9.56127
-9.59069
-9.61837
-9.64437
-9.66882
-9.69182
-9.71349
-9.73395
-9.75331
-9.77168
-9.78918
-9.80589
-9.82192
-9.83736
-9.85229
-9.86681
-9.88099
-9.89495
-9.90876
-9.92255
-9.93638
-9.95037
-9.96527
-9.98165
-9.99038
-9.27143
-9.24612
-9.23467
-9.23596
-9.24614
-9.26367
-9.28711
-9.31486
-9.34546
-9.37772
-9.41066
-9.44355
-9.47585
-9.5072
-9.53735
-9.56616
-9.59357
-9.61957
-9.64418
-9.66747
-9.68951
-9.71038
-9.73017
-9.74898
-9.76688
-9.78397
-9.80034
-9.81608
-9.83125
-9.84595
-9.86025
-9.87424
-9.88801
-9.90164
-9.91523
-9.92888
-9.94266
-9.95736
-9.97349
-9.98168
-9.3227
-9.30128
-9.29084
-9.29057
-9.29756
-9.31078
-9.32925
-9.35175
-9.37715
-9.40444
-9.43281
-9.46158
-9.49023
-9.51838
-9.54576
-9.5722
-9.59757
-9.62184
-9.64498
-9.66702
-9.688
-9.70796
-9.72698
-9.74511
-9.76244
-9.77903
-9.79496
-9.81029
-9.82511
-9.83949
-9.85349
-9.86719
-9.88067
-9.89402
-9.90734
-9.9207
-9.93419
-9.94857
-9.96429
-9.97183
-9.36686
-9.34862
-9.33923
-9.33806
-9.34283
-9.35289
-9.36754
-9.38588
-9.40702
-9.43015
-9.45457
-9.47969
-9.50503
-9.53022
-9.55498
-9.57911
-9.60248
-9.625
-9.64662
-9.66735
-9.68718
-9.70615
-9.7243
-9.74168
-9.75833
-9.77433
-9.78972
-9.80457
-9.81894
-9.8329
-9.84651
-9.85984
-9.87296
-9.88595
-9.8989
-9.91187
-9.92496
-9.93892
-9.95412
-9.96091
-9.40535
-9.38974
-9.38134
-9.37967
-9.38292
-9.39063
-9.40234
-9.41737
-9.43503
-9.45466
-9.47569
-9.4976
-9.51996
-9.54244
-9.56474
-9.58668
-9.60809
-9.62887
-9.64897
-9.66835
-9.68699
-9.7049
-9.72211
-9.73865
-9.75455
-9.76986
-9.78464
-9.79892
-9.81276
-9.82622
-9.83936
-9.85223
-9.8649
-9.87744
-9.88994
-9.90244
-9.91504
-9.92847
-9.94302
-9.94897
-9.43926
-9.42582
-9.41834
-9.41643
-9.41861
-9.42457
-9.43399
-9.44638
-9.46118
-9.47789
-9.49601
-9.51511
-9.53482
-9.55482
-9.57485
-9.59471
-9.61424
-9.63334
-9.65191
-9.66992
-9.68733
-9.70414
-9.72036
-9.73599
-9.75107
-9.76564
-9.77972
-9.79335
-9.80659
-9.81948
-9.83206
-9.84439
-9.85654
-9.86855
-9.88052
-9.89246
-9.90448
-9.91729
-9.93109
-9.93612
-9.46939
-9.45777
-9.45113
-9.44913
-9.45056
-9.4552
-9.46284
-9.4731
-9.48557
-9.49981
-9.51545
-9.5321
-9.54945
-9.56721
-9.58515
-9.60306
-9.62081
-9.63826
-9.65534
-9.67199
-9.68816
-9.70383
-9.71901
-9.7337
-9.7479
-9.76165
-9.77497
-9.78789
-9.80046
-9.8127
-9.82466
-9.83639
-9.84793
-9.85934
-9.87069
-9.88201
-9.89337
-9.90548
-9.91843
-9.92248
-9.49638
-9.48629
-9.48041
-9.47842
-9.47932
-9.48296
-9.4892
-9.49775
-9.50828
-9.52046
-9.53396
-9.54848
-9.56374
-9.57948
-9.5955
-9.61161
-9.62766
-9.64355
-9.65917
-9.67447
-9.6894
-9.70393
-9.71804
-9.73174
-9.74502
-9.75791
-9.77041
-9.78257
-9.79439
-9.80593
-9.8172
-9.82826
-9.83913
-9.84988
-9.86055
-9.87117
-9.8818
-9.89314
-9.90516
-9.90817
-9.52075
-9.51196
-9.50674
-9.50483
-9.50536
-9.50823
-9.51336
-9.52051
-9.52944
-9.53988
-9.55155
-9.56422
-9.57762
-9.59155
-9.60582
-9.62025
-9.63472
-9.64911
-9.66333
-9.67732
-9.69101
-9.70439
-9.71743
-9.73011
-9.74244
-9.75442
-9.76607
-9.7774
-9.78844
-9.79921
-9.80974
-9.82006
-9.83021
-9.84023
-9.85016
-9.86002
-9.86986
-9.88036
-9.89139
-9.89332
-9.5429
-9.53522
-9.53059
-9.52878
-9.52905
-9.53133
-9.53557
-9.54158
-9.54918
-9.55814
-9.56824
-9.57928
-9.59105
-9.60335
-9.61602
-9.62891
-9.6419
-9.65487
-9.66775
-9.68046
-9.69295
-9.70518
-9.71713
-9.72878
-9.74014
-9.75118
-9.76194
-9.77241
-9.78262
-9.79258
-9.80232
-9.81186
-9.82123
-9.83047
-9.83961
-9.84866
-9.85766
-9.86727
-9.87724
-9.87809
-9.56315
-9.55643
-9.55233
-9.55064
-9.55072
-9.55254
-9.55606
-9.56113
-9.56761
-9.57531
-9.58407
-9.59369
-9.604
-9.61484
-9.62607
-9.63754
-9.64914
-9.66078
-9.67237
-9.68385
-9.69516
-9.70627
-9.71714
-9.72776
-9.73812
-9.74821
-9.75804
-9.76762
-9.77696
-9.78608
-9.79498
-9.8037
-9.81225
-9.82067
-9.82897
-9.83716
-9.84528
-9.85396
-9.86285
-9.86259
-9.5818
-9.5759
-9.57226
-9.57069
-9.57065
-9.57211
-9.57504
-9.57933
-9.58487
-9.5915
-9.59908
-9.60745
-9.61648
-9.62601
-9.63592
-9.64609
-9.65641
-9.66679
-9.67716
-9.68745
-9.69762
-9.70762
-9.71743
-9.72701
-9.73638
-9.7455
-9.7544
-9.76306
-9.77151
-9.77974
-9.78778
-9.79564
-9.80333
-9.81089
-9.81832
-9.82562
-9.83283
-9.84055
-9.84833
-9.84696
-9.59905
-9.59387
-9.59064
-9.5892
-9.58907
-9.59024
-9.59269
-9.59633
-9.60106
-9.60677
-9.61333
-9.62061
-9.62849
-9.63684
-9.64555
-9.65452
-9.66365
-9.67286
-9.68207
-9.69123
-9.70029
-9.70922
-9.71797
-9.72654
-9.7349
-9.74306
-9.751
-9.75874
-9.76627
-9.7736
-9.78075
-9.78772
-9.79453
-9.8012
-9.80774
-9.81412
-9.82039
-9.82713
-9.83378
-9.83132
-9.61511
-9.61056
-9.60769
-9.60637
-9.60619
-9.60712
-9.60916
-9.61225
-9.6163
-9.62121
-9.62688
-9.63319
-9.64005
-9.64734
-9.65497
-9.66283
-9.67086
-9.67896
-9.68708
-9.69516
-9.70316
-9.71103
-9.71876
-9.72632
-9.73369
-9.74088
-9.74787
-9.75466
-9.76126
-9.76768
-9.77391
-9.77998
-9.78589
-9.79165
-9.79727
-9.80272
-9.80804
-9.81379
-9.81931
-9.81577
-9.63014
-9.62613
-9.62359
-9.62239
-9.62216
-9.6229
-9.62461
-9.62723
-9.63069
-9.63491
-9.63979
-9.64525
-9.6512
-9.65753
-9.66416
-9.67102
-9.67801
-9.68508
-9.69216
-9.69921
-9.70619
-9.71305
-9.71978
-9.72634
-9.73274
-9.73896
-9.74499
-9.75084
-9.75651
-9.762
-9.76731
-9.77246
-9.77745
-9.78229
-9.78698
-9.79148
-9.79584
-9.80059
-9.80499
-9.80042
-9.64428
-9.64075
-9.63849
-9.6374
-9.63715
-9.63774
-9.63916
-9.64138
-9.64433
-9.64794
-9.65213
-9.65683
-9.66196
-9.66742
-9.67315
-9.67907
-9.68511
-9.69121
-9.69731
-9.70338
-9.70937
-9.71525
-9.72101
-9.7266
-9.73204
-9.7373
-9.74238
-9.74729
-9.75202
-9.75658
-9.76096
-9.76519
-9.76925
-9.77315
-9.7769
-9.78046
-9.78386
-9.78762
-9.79091
-9.78532
-9.65766
-9.65455
-9.65254
-9.65154
-9.65128
-9.65174
-9.65292
-9.65479
-9.6573
-9.66038
-9.66396
-9.66798
-9.67237
-9.67705
-9.68194
-9.687
-9.69215
-9.69734
-9.70252
-9.70765
-9.7127
-9.71764
-9.72244
-9.72709
-9.73158
-9.7359
-9.74004
-9.74401
-9.7478
-9.75143
-9.75488
-9.75817
-9.7613
-9.76428
-9.76709
-9.7697
-9.77214
-9.77492
-9.77712
-9.77056
-9.67038
-9.66763
-9.66585
-9.66494
-9.66466
-9.66502
-9.666
-9.66757
-9.66969
-9.6723
-9.67534
-9.67876
-9.68247
-9.68643
-9.69057
-9.69482
-9.69914
-9.70348
-9.70778
-9.71203
-9.71617
-9.72019
-9.72407
-9.7278
-9.73136
-9.73475
-9.73796
-9.74099
-9.74386
-9.74655
-9.74908
-9.75144
-9.75364
-9.75568
-9.75755
-9.75922
-9.76072
-9.76253
-9.76365
-9.75616
-9.68253
-9.6801
-9.67851
-9.67768
-9.6774
-9.67767
-9.67848
-9.67979
-9.68157
-9.68377
-9.68634
-9.6892
-9.69232
-9.69562
-9.69905
-9.70257
-9.70611
-9.70964
-9.71311
-9.7165
-9.71978
-9.72292
-9.7259
-9.72873
-9.73137
-9.73385
-9.73614
-9.73825
-9.74019
-9.74196
-9.74356
-9.745
-9.74627
-9.74738
-9.74833
-9.74906
-9.74962
-9.75047
-9.75056
-9.74216
-9.6942
-9.69204
-9.69062
-9.68986
-9.68958
-9.68978
-9.69044
-9.69154
-9.69303
-9.69487
-9.697
-9.69938
-9.70194
-9.70465
-9.70743
-9.71025
-9.71307
-9.71583
-9.71852
-9.72109
-9.72353
-9.72581
-9.72793
-9.72987
-9.73162
-9.73319
-9.73458
-9.73578
-9.7368
-9.73765
-9.73833
-9.73885
-9.7392
-9.73939
-9.73941
-9.73922
-9.73885
-9.73877
-9.73784
-9.72859
-9.70546
-9.70352
-9.70223
-9.70154
-9.70127
-9.70142
-9.70197
-9.70288
-9.70412
-9.70565
-9.7074
-9.70934
-9.7114
-9.71355
-9.71574
-9.71791
-9.72004
-9.72208
-9.72401
-9.7258
-9.72743
-9.72889
-9.73016
-9.73123
-9.73211
-9.73279
-9.73328
-9.73358
-9.73369
-9.73363
-9.7334
-9.733
-9.73243
-9.73171
-9.73082
-9.72971
-9.72844
-9.72745
-9.72553
-9.71544
-9.71635
-9.71459
-9.71342
-9.71279
-9.71254
-9.71266
-9.71312
-9.71389
-9.71492
-9.71617
-9.71759
-9.71913
-9.72074
-9.72239
-9.72401
-9.72558
-9.72706
-9.72842
-9.72963
-9.73066
-9.73151
-9.73215
-9.73259
-9.73282
-9.73283
-9.73264
-9.73224
-9.73164
-9.73085
-9.72988
-9.72874
-9.72743
-9.72596
-9.72434
-9.72254
-9.72054
-9.71838
-9.71648
-9.7136
-9.70272
-9.72693
-9.72528
-9.72421
-9.72365
-9.72344
-9.72355
-9.72396
-9.72462
-9.72548
-9.7265
-9.72763
-9.72882
-9.73002
-9.7312
-9.73231
-9.73331
-9.73417
-9.73487
-9.73538
-9.73568
-9.73577
-9.73562
-9.73525
-9.73464
-9.7338
-9.73274
-9.73145
-9.72997
-9.72828
-9.72641
-9.72437
-9.72216
-9.71978
-9.71726
-9.71457
-9.71168
-9.70865
-9.70588
-9.70207
-9.69042
-9.7372
-9.73563
-9.73464
-9.73416
-9.73401
-9.73416
-9.73455
-9.73514
-9.73588
-9.73671
-9.73759
-9.73847
-9.7393
-9.74005
-9.74067
-9.74113
-9.74141
-9.74147
-9.74131
-9.7409
-9.74024
-9.73932
-9.73814
-9.7367
-9.73502
-9.73309
-9.73093
-9.72856
-9.72598
-9.72321
-9.72026
-9.71715
-9.71388
-9.71046
-9.70689
-9.70313
-9.69924
-9.69563
-9.69092
-9.67853
-9.74716
-9.74561
-9.74469
-9.74432
-9.74428
-9.7445
-9.74492
-9.74549
-9.74615
-9.74684
-9.74752
-9.74812
-9.74862
-9.74897
-9.74913
-9.74909
-9.7488
-9.74825
-9.74743
-9.74633
-9.74493
-9.74325
-9.74127
-9.73902
-9.73649
-9.7337
-9.73067
-9.72741
-9.72393
-9.72026
-9.71641
-9.71239
-9.70823
-9.70392
-9.69948
-9.69486
-9.69014
-9.68571
-9.68014
-9.66705
-9.75674
-9.75514
-9.75432
-9.7541
-9.75422
-9.75457
-9.75509
-9.75569
-9.75632
-9.75692
-9.75743
-9.7578
-9.758
-9.75798
-9.75772
-9.75719
-9.75637
-9.75523
-9.75377
-9.75199
-9.74987
-9.74743
-9.74467
-9.74159
-9.73823
-9.73458
-9.73067
-9.72652
-9.72215
-9.71758
-9.71283
-9.70791
-9.70285
-9.69766
-9.69235
-9.68689
-9.68136
-9.67615
-9.66977
-9.65602
-9.7659
-9.76426
-9.76361
-9.76367
-9.76405
-9.76463
-9.76532
-9.76603
-9.76669
-9.76724
-9.76763
-9.76782
-9.76775
-9.7674
-9.76674
-9.76575
-9.76439
-9.76268
-9.76058
-9.75812
-9.75527
-9.75207
-9.74851
-9.7446
-9.74038
-9.73586
-9.73105
-9.72599
-9.7207
-9.7152
-9.70952
-9.70368
-9.69771
-9.69162
-9.68542
-9.67912
-9.67279
-9.66681
-9.65965
-9.64525
-9.77444
-9.77313
-9.773
-9.77359
-9.77443
-9.77539
-9.77636
-9.77726
-9.77802
-9.77858
-9.7789
-9.77891
-9.77859
-9.77791
-9.77683
-9.77535
-9.77343
-9.77109
-9.76831
-9.76509
-9.76146
-9.75741
-9.75297
-9.74815
-9.74298
-9.73748
-9.73169
-9.72562
-9.71931
-9.71278
-9.70607
-9.69921
-9.69222
-9.68513
-9.67797
-9.67074
-9.66357
-9.6568
-9.64887
-9.63423
-9.78017
-9.77956
-9.78019
-9.7814
-9.78272
-9.78402
-9.78523
-9.78628
-9.7871
-9.78764
-9.78785
-9.78768
-9.78711
-9.7861
-9.78463
-9.78268
-9.78025
-9.77733
-9.77392
-9.77003
-9.76568
-9.76089
-9.75566
-9.75004
-9.74405
-9.73771
-9.73107
-9.72414
-9.71697
-9.70958
-9.70202
-9.69431
-9.68648
-9.67858
-9.67062
-9.66265
-9.65481
-9.64736
-9.63874
-9.62597
)
;

boundaryField
{
    movingWall
    {
        type            zeroGradient;
    }
    bottomWall
    {
        type            zeroGradient;
    }
    leftSide
    {
        type            zeroGradient;
    }
    rightSide
    {
        type            zeroGradient;
    }
    frontAndBack
    {
        type            empty;
    }
}


// ************************************************************************* //
