/*--------------------------------*- C++ -*----------------------------------*\
| =========                 |                                                 |
| \\      /  F ield         | OpenFOAM: The Open Source CFD Toolbox           |
|  \\    /   O peration     | Version:  v2012                                 |
|   \\  /    A nd           | Website:  www.openfoam.com                      |
|    \\/     M anipulation  |                                                 |
\*---------------------------------------------------------------------------*/
FoamFile
{
    version     2.0;
    format      ascii;
    class       surfaceScalarField;
    location    "0.6";
    object      phi;
}
// * * * * * * * * * * * * * * * * * * * * * * * * * * * * * * * * * * * * * //

dimensions      [0 3 -1 0 0 0 0];
oriented        oriented;


internalField   nonuniform List<scalar> 
3120
(
1.84441e-05
6.55591e-06
1.28427e-05
5.60136e-06
9.35148e-06
3.49125e-06
7.17666e-06
2.17482e-06
5.77467e-06
1.40199e-06
4.83187e-06
9.42796e-07
4.16644e-06
6.65435e-07
3.67427e-06
4.92168e-07
3.29553e-06
3.78743e-07
2.99471e-06
3.00817e-07
2.74978e-06
2.44933e-07
2.54639e-06
2.0339e-07
2.3748e-06
1.71587e-07
2.22816e-06
1.46642e-07
2.10148e-06
1.26678e-07
1.99106e-06
1.10422e-07
1.89407e-06
9.69844e-08
1.80835e-06
8.57254e-08
1.73217e-06
7.61758e-08
1.66419e-06
6.79836e-08
1.60331e-06
6.08807e-08
1.54865e-06
5.46599e-08
1.49949e-06
4.91585e-08
1.45524e-06
4.42483e-08
1.41541e-06
3.9827e-08
1.3796e-06
3.58131e-08
1.34746e-06
3.21423e-08
1.31869e-06
2.87649e-08
1.29305e-06
2.56453e-08
1.27029e-06
2.27617e-08
1.25018e-06
2.01073e-08
1.23248e-06
1.76932e-08
1.21693e-06
1.55525e-08
1.20318e-06
1.37478e-08
1.1908e-06
1.23795e-08
1.17921e-06
1.15901e-08
1.16762e-06
1.15946e-08
1.15483e-06
1.27932e-08
1.13935e-06
1.54758e-08
1.76073e-08
2.55027e-05
6.05319e-06
2.31417e-05
7.9624e-06
1.99922e-05
6.64072e-06
1.71183e-05
5.04873e-06
1.47611e-05
3.75916e-06
1.28934e-05
2.81055e-06
1.14197e-05
2.13906e-06
1.02463e-05
1.66559e-06
9.29843e-06
1.32664e-06
8.52072e-06
1.07853e-06
7.87306e-06
8.92584e-07
7.32641e-06
7.50042e-07
6.85951e-06
6.38491e-07
6.45659e-06
5.49564e-07
6.10577e-06
4.77497e-07
5.79796e-06
4.18227e-07
5.52612e-06
3.68831e-07
5.28468e-06
3.2716e-07
5.06925e-06
2.91611e-07
4.87627e-06
2.60964e-07
4.70287e-06
2.34279e-07
4.5467e-06
2.10824e-07
4.40584e-06
1.90021e-07
4.27868e-06
1.71409e-07
4.16389e-06
1.5462e-07
4.06034e-06
1.3936e-07
3.96709e-06
1.25398e-07
3.8833e-06
1.12553e-07
3.80825e-06
1.00697e-07
3.74126e-06
8.97482e-08
3.68169e-06
7.96776e-08
3.62887e-06
7.05132e-08
3.58207e-06
6.23496e-08
3.54046e-06
5.53594e-08
3.50304e-06
4.98021e-08
3.46861e-06
4.6019e-08
3.43577e-06
4.44305e-08
3.40307e-06
4.54944e-08
3.3696e-06
4.89511e-08
5.19865e-08
2.63558e-05
4.69741e-06
2.63127e-05
8.0055e-06
2.48785e-05
8.0749e-06
2.28662e-05
7.06102e-06
2.07799e-05
5.84551e-06
1.88482e-05
4.74224e-06
1.71488e-05
3.8384e-06
1.56867e-05
3.12769e-06
1.44378e-05
2.5756e-06
1.33703e-05
2.14606e-06
1.24537e-05
1.8091e-06
1.1662e-05
1.54174e-06
1.09736e-05
1.32694e-06
1.0371e-05
1.15217e-06
9.84027e-06
1.00822e-06
9.37021e-06
8.88285e-07
8.95179e-06
7.87249e-07
8.5777e-06
7.0125e-07
8.24198e-06
6.27327e-07
7.93976e-06
5.63187e-07
7.66701e-06
5.07033e-07
7.42039e-06
4.57442e-07
7.19713e-06
4.13281e-07
6.9949e-06
3.73637e-07
6.81174e-06
3.37778e-07
6.64599e-06
3.05113e-07
6.49622e-06
2.75172e-07
6.36117e-06
2.47593e-07
6.23976e-06
2.22109e-07
6.13096e-06
1.98551e-07
6.03379e-06
1.76846e-07
5.94728e-06
1.57029e-07
5.87037e-06
1.39251e-07
5.80195e-06
1.23788e-07
5.74071e-06
1.11038e-07
5.68523e-06
1.01496e-07
5.63398e-06
9.56815e-08
5.58552e-06
9.39538e-08
5.53887e-06
9.56045e-08
9.74722e-08
2.61648e-05
3.5326e-06
2.69818e-05
7.18851e-06
2.67716e-05
8.28508e-06
2.57894e-05
8.04328e-06
2.4396e-05
7.23885e-06
2.2857e-05
6.28127e-06
2.13322e-05
5.36322e-06
1.99026e-05
4.5572e-06
1.86008e-05
3.87745e-06
1.74326e-05
3.31427e-06
1.63913e-05
2.85037e-06
1.54651e-05
2.46795e-06
1.46408e-05
2.15126e-06
1.39057e-05
1.88728e-06
1.32483e-05
1.66556e-06
1.26588e-05
1.47781e-06
1.21285e-05
1.31753e-06
1.16502e-05
1.17956e-06
1.12177e-05
1.05984e-06
1.08258e-05
9.55107e-07
1.047e-05
8.62776e-07
1.01467e-05
7.80745e-07
9.8527e-06
7.07316e-07
9.58523e-06
6.41106e-07
9.34202e-06
5.80988e-07
9.12108e-06
5.26048e-07
8.9207e-06
4.75553e-07
8.73937e-06
4.2893e-07
8.57572e-06
3.85755e-07
8.42852e-06
3.4575e-07
8.29659e-06
3.08781e-07
8.17874e-06
2.74873e-07
8.07378e-06
2.44211e-07
7.98042e-06
2.17149e-07
7.89727e-06
1.94191e-07
7.82283e-06
1.75939e-07
7.75552e-06
1.62985e-07
7.69383e-06
1.55646e-07
7.63633e-06
1.5311e-07
1.52435e-07
2.58465e-05
2.68612e-06
2.68506e-05
6.18441e-06
2.7287e-05
7.84863e-06
2.70756e-05
8.2547e-06
2.63693e-05
7.94522e-06
2.5357e-05
7.29349e-06
2.41953e-05
6.5249e-06
2.29922e-05
5.7604e-06
2.18134e-05
5.05618e-06
2.06952e-05
4.43249e-06
1.96543e-05
3.89128e-06
1.8696e-05
3.42623e-06
1.78193e-05
3.02802e-06
1.70196e-05
2.68691e-06
1.62913e-05
2.3939e-06
1.5628e-05
2.14112e-06
1.50236e-05
1.92191e-06
1.44725e-05
1.73071e-06
1.39694e-05
1.5629e-06
1.35098e-05
1.41468e-06
1.30897e-05
1.2829e-06
1.27055e-05
1.16496e-06
1.23541e-05
1.05872e-06
1.20328e-05
9.62398e-07
1.17393e-05
8.74519e-07
1.14714e-05
7.93875e-07
1.12275e-05
7.19485e-07
1.10059e-05
6.50573e-07
1.08051e-05
5.8656e-07
1.06238e-05
5.27051e-07
1.04607e-05
4.71848e-07
1.03146e-05
4.20948e-07
1.01843e-05
3.74553e-07
1.00684e-05
3.33071e-07
9.96545e-06
2.97091e-07
9.87407e-06
2.6732e-07
9.7926e-06
2.44454e-07
9.71932e-06
2.28923e-07
9.65229e-06
2.20143e-07
2.15842e-07
2.55903e-05
2.09578e-06
2.65263e-05
5.24842e-06
2.72315e-05
7.14349e-06
2.74933e-05
7.99285e-06
2.73155e-05
8.12303e-06
2.67913e-05
7.81765e-06
2.60329e-05
7.28338e-06
2.5138e-05
6.65524e-06
2.41807e-05
6.01349e-06
2.32118e-05
5.40143e-06
2.22637e-05
4.83934e-06
2.13558e-05
4.33418e-06
2.04982e-05
3.88558e-06
1.96954e-05
3.48966e-06
1.89483e-05
3.141e-06
1.82556e-05
2.83388e-06
1.76147e-05
2.5628e-06
1.70226e-05
2.32276e-06
1.64762e-05
2.10934e-06
1.59722e-05
1.91871e-06
1.55075e-05
1.74756e-06
1.50794e-05
1.59309e-06
1.46852e-05
1.45291e-06
1.43226e-05
1.32497e-06
1.39895e-05
1.20759e-06
1.36841e-05
1.09932e-06
1.34046e-05
9.98993e-07
1.31495e-05
9.05677e-07
1.29174e-05
8.18655e-07
1.2707e-05
7.37436e-07
1.25171e-05
6.61754e-07
1.23465e-05
5.91579e-07
1.21939e-05
5.27123e-07
1.20581e-05
4.68839e-07
1.19378e-05
4.174e-07
1.18315e-05
3.73639e-07
1.17375e-05
3.38436e-07
1.16539e-05
3.12496e-07
1.15784e-05
2.95738e-07
2.86864e-07
2.54156e-05
1.68016e-06
2.62122e-05
4.4518e-06
2.69799e-05
6.37586e-06
2.74882e-05
7.48454e-06
2.76625e-05
7.94869e-06
2.75213e-05
7.95887e-06
2.71251e-05
7.67955e-06
2.65447e-05
7.23568e-06
2.58443e-05
6.7139e-06
2.50757e-05
6.16999e-06
2.42777e-05
5.63737e-06
2.34775e-05
5.13434e-06
2.26936e-05
4.66955e-06
2.19375e-05
4.24574e-06
2.12162e-05
3.86225e-06
2.05335e-05
3.51664e-06
1.98907e-05
3.20557e-06
1.9288e-05
2.92548e-06
1.87245e-05
2.67282e-06
1.81989e-05
2.44429e-06
1.77096e-05
2.23685e-06
1.72549e-05
2.04782e-06
1.6833e-05
1.8748e-06
1.64423e-05
1.71572e-06
1.60811e-05
1.56879e-06
1.57479e-05
1.43247e-06
1.54414e-05
1.30548e-06
1.51603e-05
1.18679e-06
1.49034e-05
1.07559e-06
1.46695e-05
9.71335e-07
1.44575e-05
8.73704e-07
1.42665e-05
7.82653e-07
1.40952e-05
6.98408e-07
1.39425e-05
6.21475e-07
1.38073e-05
5.52629e-07
1.36881e-05
4.9287e-07
1.35832e-05
4.43344e-07
1.34905e-05
4.05179e-07
1.34072e-05
3.79011e-07
3.64743e-07
2.53012e-05
1.37901e-06
2.59574e-05
3.7956e-06
2.66906e-05
5.64266e-06
2.73e-05
6.87511e-06
2.76827e-05
7.56594e-06
2.78113e-05
7.83033e-06
2.77042e-05
7.78663e-06
2.74021e-05
7.53773e-06
2.69518e-05
7.1642e-06
2.63972e-05
6.7246e-06
2.57755e-05
6.25907e-06
2.51163e-05
5.7936e-06
2.44418e-05
5.34402e-06
2.37684e-05
4.91913e-06
2.31075e-05
4.5231e-06
2.2467e-05
4.15716e-06
2.18519e-05
3.82072e-06
2.12652e-05
3.51219e-06
2.07085e-05
3.22943e-06
2.01827e-05
2.9701e-06
1.96877e-05
2.73184e-06
1.92232e-05
2.51238e-06
1.87884e-05
2.3096e-06
1.83825e-05
2.12159e-06
1.80047e-05
1.94662e-06
1.7654e-05
1.78321e-06
1.73294e-05
1.63006e-06
1.703e-05
1.48613e-06
1.67551e-05
1.35058e-06
1.65036e-05
1.22284e-06
1.62747e-05
1.10258e-06
1.60676e-05
9.89759e-07
1.58813e-05
8.84646e-07
1.5715e-05
7.87814e-07
1.55675e-05
7.00167e-07
1.54374e-05
6.2292e-07
1.53232e-05
5.57565e-07
1.52226e-05
5.05775e-07
1.51325e-05
4.69062e-07
4.48719e-07
2.52253e-05
1.15366e-06
2.57613e-05
3.25967e-06
2.64224e-05
4.98154e-06
2.70495e-05
6.24806e-06
2.75389e-05
7.07648e-06
2.78409e-05
7.52833e-06
2.79458e-05
7.68179e-06
2.78689e-05
7.61461e-06
2.76384e-05
7.39471e-06
2.72863e-05
7.07662e-06
2.68438e-05
6.70158e-06
2.63382e-05
6.29927e-06
2.57921e-05
5.89011e-06
2.52237e-05
5.48752e-06
2.4647e-05
5.09978e-06
2.40726e-05
4.73158e-06
2.35082e-05
4.38513e-06
2.29593e-05
4.06103e-06
2.24299e-05
3.75883e-06
2.19226e-05
3.47746e-06
2.14389e-05
3.21549e-06
2.098e-05
2.97135e-06
2.05462e-05
2.74341e-06
2.01376e-05
2.5301e-06
1.97543e-05
2.32995e-06
1.93959e-05
2.14161e-06
1.90621e-05
1.96392e-06
1.87523e-05
1.79589e-06
1.84661e-05
1.63673e-06
1.82031e-05
1.48589e-06
1.79626e-05
1.3431e-06
1.7744e-05
1.20834e-06
1.75467e-05
1.08193e-06
1.73699e-05
9.64568e-07
1.72128e-05
8.57306e-07
1.70741e-05
7.61626e-07
1.69522e-05
6.79431e-07
1.6845e-05
6.13034e-07
1.67491e-05
5.64947e-07
5.38005e-07
2.51736e-05
9.80066e-07
2.56122e-05
2.82104e-06
2.61924e-05
4.40138e-06
2.67934e-05
5.64703e-06
2.73235e-05
6.54635e-06
2.7726e-05
7.12586e-06
2.79751e-05
7.43271e-06
2.80682e-05
7.52154e-06
2.80174e-05
7.44551e-06
2.78426e-05
7.25135e-06
2.75668e-05
6.97744e-06
2.72123e-05
6.65375e-06
2.67997e-05
6.30275e-06
2.63465e-05
5.94063e-06
2.58677e-05
5.57867e-06
2.53749e-05
5.22437e-06
2.48776e-05
4.88241e-06
2.43831e-05
4.55551e-06
2.3897e-05
4.24493e-06
2.34235e-05
3.95099e-06
2.29656e-05
3.67335e-06
2.25257e-05
3.41129e-06
2.21052e-05
3.16384e-06
2.17054e-05
2.92993e-06
2.13269e-05
2.70845e-06
2.09702e-05
2.49834e-06
2.06355e-05
2.29865e-06
2.03228e-05
2.10852e-06
2.00322e-05
1.92731e-06
1.97636e-05
1.75455e-06
1.95167e-05
1.59002e-06
1.92912e-05
1.43381e-06
1.90868e-05
1.28634e-06
1.89029e-05
1.14841e-06
1.87389e-05
1.0213e-06
1.85938e-05
9.0678e-07
1.8466e-05
8.07226e-07
1.83534e-05
7.25659e-07
1.82526e-05
6.65679e-07
6.31784e-07
2.5137e-05
8.43038e-07
2.54984e-05
2.4597e-06
2.60012e-05
3.89856e-06
2.65561e-05
5.09214e-06
2.70868e-05
6.01565e-06
2.75383e-05
6.67434e-06
2.78778e-05
7.09321e-06
2.80914e-05
7.30798e-06
2.81792e-05
7.3577e-06
2.81506e-05
7.27991e-06
2.80202e-05
7.10785e-06
2.78045e-05
6.86941e-06
2.75204e-05
6.58694e-06
2.71832e-05
6.27774e-06
2.68071e-05
5.9548e-06
2.64039e-05
5.62757e-06
2.59837e-05
5.30267e-06
2.55546e-05
4.98457e-06
2.51234e-05
4.67613e-06
2.46954e-05
4.37899e-06
2.42748e-05
4.09393e-06
2.3865e-05
3.82115e-06
2.34684e-05
3.56041e-06
2.30871e-05
3.31123e-06
2.27226e-05
3.07298e-06
2.23759e-05
2.84497e-06
2.20481e-05
2.62652e-06
2.17396e-05
2.41703e-06
2.14509e-05
2.21599e-06
2.11823e-05
2.02311e-06
2.0934e-05
1.8383e-06
2.07061e-05
1.66175e-06
2.04984e-05
1.49401e-06
2.03108e-05
1.33607e-06
2.01426e-05
1.18942e-06
1.99933e-05
1.05617e-06
1.98613e-05
9.3921e-07
1.97446e-05
8.42317e-07
1.96401e-05
7.70238e-07
7.29214e-07
2.51103e-05
7.32716e-07
2.54104e-05
2.15963e-06
2.58441e-05
3.46489e-06
2.63458e-05
4.59045e-06
2.68543e-05
5.50709e-06
2.73206e-05
6.20805e-06
2.77103e-05
6.70348e-06
2.80036e-05
7.01468e-06
2.81927e-05
7.16863e-06
2.82787e-05
7.19386e-06
2.8269e-05
7.11758e-06
2.81743e-05
6.96414e-06
2.80069e-05
6.75428e-06
2.77797e-05
6.50503e-06
2.75045e-05
6.22995e-06
2.71925e-05
5.93953e-06
2.68535e-05
5.64167e-06
2.64959e-05
5.34217e-06
2.61269e-05
5.04516e-06
2.57524e-05
4.75345e-06
2.53775e-05
4.46886e-06
2.50062e-05
4.19246e-06
2.46419e-05
3.92477e-06
2.42871e-05
3.66593e-06
2.39443e-05
3.41584e-06
2.3615e-05
3.17423e-06
2.33008e-05
2.94077e-06
2.30027e-05
2.71512e-06
2.27217e-05
2.49702e-06
2.24584e-05
2.28637e-06
2.22135e-05
2.08324e-06
2.19872e-05
1.88798e-06
2.17799e-05
1.7013e-06
2.15916e-05
1.5244e-06
2.1422e-05
1.35901e-06
2.12706e-05
1.20762e-06
2.11361e-05
1.07365e-06
2.10168e-05
9.6167e-07
2.09094e-05
8.77589e-07
8.29442e-07
2.50903e-05
6.42464e-07
2.53415e-05
1.90839e-06
2.57152e-05
3.09116e-06
2.61635e-05
4.14221e-06
2.66382e-05
5.03237e-06
2.70975e-05
5.74876e-06
2.75088e-05
6.29212e-06
2.78501e-05
6.67338e-06
2.81089e-05
6.90991e-06
2.82805e-05
7.02222e-06
2.83666e-05
7.03153e-06
2.83726e-05
6.95805e-06
2.83069e-05
6.82001e-06
2.81788e-05
6.63317e-06
2.7998e-05
6.41073e-06
2.77741e-05
6.16344e-06
2.75159e-05
5.89984e-06
2.72315e-05
5.62657e-06
2.6928e-05
5.34865e-06
2.66116e-05
5.06983e-06
2.62877e-05
4.79279e-06
2.59608e-05
4.51937e-06
2.56347e-05
4.25081e-06
2.53128e-05
3.98786e-06
2.49977e-05
3.73093e-06
2.46918e-05
3.4802e-06
2.43968e-05
3.2357e-06
2.41145e-05
2.99743e-06
2.38461e-05
2.7654e-06
2.35928e-05
2.5397e-06
2.33554e-05
2.32062e-06
2.31347e-05
2.1087e-06
2.29312e-05
1.90485e-06
2.27451e-05
1.71046e-06
2.25765e-05
1.52758e-06
2.24251e-05
1.35907e-06
2.22899e-05
1.20889e-06
2.21691e-05
1.08241e-06
2.206e-05
9.86709e-07
9.31619e-07
2.50748e-05
5.67664e-07
2.52868e-05
1.69642e-06
2.56093e-05
2.76867e-06
2.60071e-05
3.74435e-06
2.64431e-05
4.59643e-06
2.68823e-05
5.30948e-06
2.72958e-05
5.87865e-06
2.76614e-05
6.30778e-06
2.79644e-05
6.60692e-06
2.81966e-05
6.79e-06
2.83554e-05
6.87277e-06
2.84422e-05
6.87126e-06
2.84614e-05
6.80079e-06
2.84193e-05
6.67526e-06
2.83232e-05
6.50685e-06
2.81807e-05
6.30594e-06
2.79994e-05
6.08116e-06
2.77864e-05
5.83949e-06
2.75486e-05
5.58653e-06
2.72918e-05
5.32663e-06
2.70214e-05
5.06312e-06
2.67423e-05
4.7985e-06
2.64585e-05
4.5346e-06
2.61737e-05
4.27273e-06
2.58908e-05
4.01377e-06
2.56127e-05
3.75834e-06
2.53415e-05
3.50686e-06
2.50793e-05
3.25964e-06
2.48277e-05
3.01696e-06
2.45883e-05
2.77918e-06
2.43621e-05
2.54681e-06
2.41502e-05
2.32059e-06
2.39534e-05
2.10165e-06
2.37722e-05
1.89163e-06
2.36069e-05
1.69285e-06
2.34574e-05
1.50859e-06
2.33229e-05
1.34335e-06
2.32021e-05
1.20327e-06
2.30922e-05
1.09661e-06
1.03492e-06
2.50627e-05
5.04999e-07
2.52428e-05
1.51632e-06
2.55217e-05
2.48976e-06
2.58736e-05
3.39244e-06
2.62697e-05
4.20027e-06
2.66818e-05
4.89738e-06
2.70846e-05
5.47587e-06
2.74575e-05
5.93493e-06
2.77851e-05
6.27934e-06
2.80572e-05
6.51782e-06
2.82685e-05
6.66145e-06
2.84174e-05
6.72245e-06
2.8505e-05
6.71314e-06
2.8535e-05
6.64528e-06
2.85122e-05
6.52966e-06
2.84423e-05
6.37583e-06
2.83314e-05
6.19205e-06
2.81856e-05
5.98529e-06
2.80108e-05
5.76132e-06
2.78126e-05
5.52485e-06
2.75961e-05
5.27965e-06
2.73659e-05
5.02867e-06
2.71263e-05
4.77423e-06
2.68809e-05
4.51806e-06
2.66332e-05
4.26151e-06
2.6386e-05
4.00556e-06
2.61418e-05
3.751e-06
2.5903e-05
3.49845e-06
2.56715e-05
3.24848e-06
2.5449e-05
3.0017e-06
2.5237e-05
2.75884e-06
2.50367e-05
2.52089e-06
2.48491e-05
2.28918e-06
2.46752e-05
2.06562e-06
2.45152e-05
1.85283e-06
2.43693e-05
1.65447e-06
2.42371e-05
1.4756e-06
2.41172e-05
1.3231e-06
2.40075e-05
1.20634e-06
1.13854e-06
2.5053e-05
4.52026e-07
2.52069e-05
1.36234e-06
2.54488e-05
2.24787e-06
2.57596e-05
3.08165e-06
2.61172e-05
3.84271e-06
2.64987e-05
4.51583e-06
2.68829e-05
5.09172e-06
2.72511e-05
5.56671e-06
2.75885e-05
5.9419e-06
2.78843e-05
6.22207e-06
2.81312e-05
6.41454e-06
2.83255e-05
6.52814e-06
2.84662e-05
6.57244e-06
2.85545e-05
6.55703e-06
2.85931e-05
6.49107e-06
2.85859e-05
6.38303e-06
2.85374e-05
6.24049e-06
2.84526e-05
6.07008e-06
2.83365e-05
5.87749e-06
2.81938e-05
5.66752e-06
2.80293e-05
5.44413e-06
2.78474e-05
5.21059e-06
2.76521e-05
4.96951e-06
2.74472e-05
4.72301e-06
2.72359e-05
4.47276e-06
2.70214e-05
4.22009e-06
2.68063e-05
3.96608e-06
2.65931e-05
3.71165e-06
2.63839e-05
3.45764e-06
2.61807e-05
3.20491e-06
2.59851e-05
2.95442e-06
2.57986e-05
2.70738e-06
2.56225e-05
2.46537e-06
2.54575e-05
2.23053e-06
2.53046e-05
2.0058e-06
2.51638e-05
1.79522e-06
2.50351e-05
1.60437e-06
2.49173e-05
1.44084e-06
2.48086e-05
1.31505e-06
1.24175e-06
2.50451e-05
4.06906e-07
2.51775e-05
1.22998e-06
2.53879e-05
2.03749e-06
2.56622e-05
2.8073e-06
2.59835e-05
3.52141e-06
2.63336e-05
4.16579e-06
2.66945e-05
4.73077e-06
2.70502e-05
5.21106e-06
2.73867e-05
5.60532e-06
2.76934e-05
5.91545e-06
2.79621e-05
6.1458e-06
2.81878e-05
6.30244e-06
2.83678e-05
6.39245e-06
2.85015e-05
6.42337e-06
2.85898e-05
6.40273e-06
2.86351e-05
6.33776e-06
2.86404e-05
6.23519e-06
2.86094e-05
6.10109e-06
2.8546e-05
5.94082e-06
2.84545e-05
5.75906e-06
2.83388e-05
5.55981e-06
2.82029e-05
5.34645e-06
2.80507e-05
5.12178e-06
2.78855e-05
4.88815e-06
2.77108e-05
4.64748e-06
2.75295e-05
4.40137e-06
2.73444e-05
4.15117e-06
2.71581e-05
3.89803e-06
2.69727e-05
3.64304e-06
2.67903e-05
3.38729e-06
2.66127e-05
3.13196e-06
2.64417e-05
2.87848e-06
2.62784e-05
2.62866e-06
2.6124e-05
2.38489e-06
2.59794e-05
2.1504e-06
2.5845e-05
1.92962e-06
2.57208e-05
1.72859e-06
2.5606e-05
1.55558e-06
2.54991e-05
1.42195e-06
1.34385e-06
2.50387e-05
3.68228e-07
2.5153e-05
1.11564e-06
2.53365e-05
1.854e-06
2.55787e-05
2.56508e-06
2.58666e-05
3.23354e-06
2.61856e-05
3.84674e-06
2.65212e-05
4.39526e-06
2.68592e-05
4.87302e-06
2.71874e-05
5.27713e-06
2.74953e-05
5.60747e-06
2.7775e-05
5.86615e-06
2.80204e-05
6.05701e-06
2.82279e-05
6.18501e-06
2.83954e-05
6.25586e-06
2.85226e-05
6.27553e-06
2.86103e-05
6.25001e-06
2.86605e-05
6.18505e-06
2.86755e-05
6.08602e-06
2.86585e-05
5.95784e-06
2.86127e-05
5.80489e-06
2.85415e-05
5.63102e-06
2.84483e-05
5.4396e-06
2.83366e-05
5.23351e-06
2.82096e-05
5.01519e-06
2.80703e-05
4.78674e-06
2.79217e-05
4.54994e-06
2.77666e-05
4.30634e-06
2.76073e-05
4.05729e-06
2.74462e-05
3.8041e-06
2.72855e-05
3.54805e-06
2.71269e-05
3.29052e-06
2.69722e-05
3.03316e-06
2.68229e-05
2.77799e-06
2.66801e-05
2.52764e-06
2.65449e-05
2.28562e-06
2.64178e-05
2.05671e-06
2.6299e-05
1.84739e-06
2.61881e-05
1.66656e-06
2.60836e-05
1.52638e-06
1.44425e-06
2.50333e-05
3.34892e-07
2.51325e-05
1.01646e-06
2.5293e-05
1.69356e-06
2.55069e-05
2.35113e-06
2.57643e-05
2.97611e-06
2.60538e-05
3.55733e-06
2.63631e-05
4.08592e-06
2.66806e-05
4.55556e-06
2.69952e-05
4.96246e-06
2.72976e-05
5.30512e-06
2.75797e-05
5.58403e-06
2.78354e-05
5.80126e-06
2.80604e-05
5.96008e-06
2.82517e-05
6.06457e-06
2.84079e-05
6.11931e-06
2.85288e-05
6.12907e-06
2.86152e-05
6.09865e-06
2.86686e-05
6.03264e-06
2.8691e-05
5.9354e-06
2.8685e-05
5.81091e-06
2.86533e-05
5.66277e-06
2.85987e-05
5.4942e-06
2.85241e-05
5.30804e-06
2.84326e-05
5.10675e-06
2.83268e-05
4.89251e-06
2.82095e-05
4.6672e-06
2.80834e-05
4.43251e-06
2.79507e-05
4.18996e-06
2.78138e-05
3.941e-06
2.76748e-05
3.68709e-06
2.75355e-05
3.4298e-06
2.73977e-05
3.17096e-06
2.72629e-05
2.91278e-06
2.71324e-05
2.65813e-06
2.70072e-05
2.41078e-06
2.68881e-05
2.17581e-06
2.67754e-05
1.96013e-06
2.66688e-05
1.77314e-06
2.65674e-05
1.62776e-06
1.54241e-06
2.50289e-05
3.0603e-07
2.51152e-05
9.30135e-07
2.52558e-05
1.55296e-06
2.54449e-05
2.16201e-06
2.56748e-05
2.74621e-06
2.59364e-05
3.29574e-06
2.62198e-05
3.80247e-06
2.65153e-05
4.26016e-06
2.68131e-05
4.66457e-06
2.71049e-05
5.01334e-06
2.73832e-05
5.30578e-06
2.76418e-05
5.54264e-06
2.78761e-05
5.72581e-06
2.80826e-05
5.85805e-06
2.82592e-05
5.94268e-06
2.84049e-05
5.98339e-06
2.85195e-05
5.98403e-06
2.86037e-05
5.94844e-06
2.86588e-05
5.88034e-06
2.86864e-05
5.78324e-06
2.86888e-05
5.66043e-06
2.86681e-05
5.51489e-06
2.86268e-05
5.34931e-06
2.85675e-05
5.1661e-06
2.84925e-05
4.96744e-06
2.84045e-05
4.75526e-06
2.83057e-05
4.5313e-06
2.81985e-05
4.29721e-06
2.80849e-05
4.05455e-06
2.79671e-05
3.80492e-06
2.78468e-05
3.55004e-06
2.77259e-05
3.2919e-06
2.76058e-05
3.0329e-06
2.74878e-05
2.77611e-06
2.73731e-05
2.52553e-06
2.72624e-05
2.28652e-06
2.71561e-05
2.06635e-06
2.70544e-05
1.87487e-06
2.69565e-05
1.72563e-06
1.63788e-06
2.50251e-05
2.8095e-07
2.51004e-05
8.54769e-07
2.52239e-05
1.42951e-06
2.53912e-05
1.99475e-06
2.55963e-05
2.54109e-06
2.58321e-05
3.05996e-06
2.60905e-05
3.544e-06
2.63634e-05
3.98729e-06
2.66426e-05
4.38541e-06
2.69204e-05
4.73549e-06
2.71901e-05
5.03605e-06
2.74459e-05
5.28686e-06
2.7683e-05
5.48876e-06
2.78976e-05
5.64338e-06
2.80873e-05
5.75302e-06
2.82503e-05
5.8204e-06
2.83858e-05
5.84849e-06
2.84939e-05
5.84038e-06
2.8575e-05
5.79919e-06
2.86304e-05
5.72792e-06
2.86613e-05
5.62947e-06
2.86697e-05
5.50653e-06
2.86574e-05
5.36159e-06
2.86266e-05
5.19694e-06
2.85793e-05
5.01468e-06
2.85179e-05
4.81673e-06
2.84443e-05
4.60486e-06
2.83607e-05
4.38076e-06
2.82692e-05
4.14609e-06
2.81716e-05
3.90254e-06
2.80697e-05
3.65195e-06
2.79651e-05
3.39646e-06
2.78594e-05
3.13861e-06
2.77539e-05
2.88164e-06
2.76496e-05
2.62979e-06
2.75475e-05
2.38865e-06
2.7448e-05
2.16579e-06
2.73515e-05
1.97145e-06
2.72574e-05
1.81965e-06
1.73028e-06
2.50219e-05
2.59091e-07
2.50878e-05
7.88819e-07
2.51964e-05
1.32095e-06
2.53444e-05
1.84675e-06
2.55272e-05
2.35823e-06
2.57393e-05
2.84793e-06
2.5974e-05
3.30927e-06
2.62246e-05
3.73672e-06
2.64841e-05
4.12592e-06
2.67458e-05
4.47372e-06
2.70037e-05
4.77813e-06
2.72524e-05
5.03824e-06
2.74871e-05
5.25405e-06
2.77041e-05
5.42634e-06
2.79006e-05
5.55654e-06
2.80745e-05
5.64651e-06
2.82245e-05
5.69847e-06
2.83501e-05
5.71481e-06
2.84512e-05
5.69805e-06
2.85284e-05
5.6507e-06
2.85827e-05
5.57523e-06
2.86152e-05
5.47401e-06
2.86275e-05
5.34929e-06
2.86213e-05
5.20318e-06
2.85983e-05
5.03766e-06
2.85604e-05
4.85459e-06
2.85096e-05
4.65572e-06
2.84476e-05
4.44274e-06
2.83763e-05
4.21737e-06
2.82975e-05
3.98135e-06
2.82128e-05
3.73664e-06
2.81238e-05
3.48544e-06
2.80319e-05
3.23047e-06
2.79385e-05
2.97512e-06
2.78445e-05
2.72377e-06
2.77509e-05
2.48226e-06
2.76583e-05
2.25838e-06
2.7567e-05
2.06269e-06
2.74771e-05
1.90956e-06
1.81934e-06
2.50191e-05
2.39995e-07
2.50769e-05
7.31002e-07
2.51725e-05
1.22537e-06
2.53035e-05
1.71575e-06
2.54664e-05
2.19533e-06
2.56567e-05
2.65764e-06
2.58691e-05
3.09682e-06
2.60981e-05
3.50778e-06
2.63376e-05
3.88635e-06
2.65821e-05
4.22927e-06
2.6826e-05
4.53426e-06
2.70643e-05
4.79992e-06
2.72927e-05
5.02563e-06
2.75075e-05
5.21153e-06
2.77057e-05
5.35831e-06
2.78851e-05
5.46715e-06
2.8044e-05
5.53957e-06
2.81815e-05
5.57736e-06
2.8297e-05
5.58247e-06
2.83908e-05
5.55692e-06
2.84633e-05
5.50278e-06
2.85152e-05
5.42207e-06
2.85477e-05
5.31678e-06
2.85621e-05
5.1888e-06
2.85598e-05
5.03996e-06
2.85424e-05
4.87201e-06
2.85114e-05
4.68665e-06
2.84686e-05
4.48555e-06
2.84156e-05
4.27042e-06
2.83539e-05
4.04306e-06
2.8285e-05
3.80548e-06
2.82105e-05
3.55998e-06
2.81316e-05
3.30936e-06
2.80496e-05
3.05716e-06
2.79655e-05
2.8079e-06
2.78801e-05
2.56758e-06
2.77943e-05
2.3442e-06
2.77085e-05
2.14854e-06
2.76228e-05
1.99521e-06
1.90483e-06
2.50167e-05
2.23285e-07
2.50675e-05
6.80246e-07
2.51517e-05
1.14115e-06
2.52677e-05
1.59978e-06
2.54127e-05
2.05032e-06
2.55831e-05
2.48716e-06
2.57749e-05
2.9051e-06
2.59831e-05
3.29952e-06
2.6203e-05
3.66646e-06
2.64296e-05
4.00272e-06
2.6658e-05
4.30584e-06
2.68838e-05
4.5741e-06
2.7103e-05
4.80647e-06
2.7312e-05
5.00254e-06
2.75078e-05
5.16246e-06
2.76882e-05
5.28681e-06
2.78512e-05
5.37655e-06
2.79956e-05
5.43292e-06
2.81207e-05
5.45736e-06
2.82262e-05
5.45144e-06
2.83122e-05
5.41683e-06
2.8379e-05
5.3552e-06
2.84275e-05
5.26827e-06
2.84586e-05
5.1577e-06
2.84734e-05
5.02515e-06
2.84732e-05
4.87222e-06
2.84593e-05
4.70054e-06
2.84332e-05
4.51172e-06
2.83961e-05
4.30746e-06
2.83496e-05
4.08957e-06
2.8295e-05
3.86008e-06
2.82336e-05
3.62138e-06
2.81666e-05
3.37633e-06
2.80952e-05
3.12857e-06
2.80204e-05
2.88275e-06
2.7943e-05
2.645e-06
2.78637e-05
2.42346e-06
2.77832e-05
2.22905e-06
2.77019e-05
2.07653e-06
1.98661e-06
2.50146e-05
2.08647e-07
2.50592e-05
6.35649e-07
2.51335e-05
1.0669e-06
2.52361e-05
1.49713e-06
2.53651e-05
1.92135e-06
2.55176e-05
2.33469e-06
2.56901e-05
2.73257e-06
2.58788e-05
3.11079e-06
2.60796e-05
3.46569e-06
2.62882e-05
3.79414e-06
2.65004e-05
4.09363e-06
2.67122e-05
4.36226e-06
2.692e-05
4.59868e-06
2.71205e-05
4.8021e-06
2.73107e-05
4.97222e-06
2.74883e-05
5.10916e-06
2.76515e-05
5.21339e-06
2.77987e-05
5.28568e-06
2.79291e-05
5.32702e-06
2.8042e-05
5.33857e-06
2.81372e-05
5.32162e-06
2.82148e-05
5.27752e-06
2.82754e-05
5.20771e-06
2.83195e-05
5.11361e-06
2.8348e-05
4.99669e-06
2.83618e-05
4.85841e-06
2.8362e-05
4.70029e-06
2.83499e-05
4.52386e-06
2.83265e-05
4.3308e-06
2.82932e-05
4.12289e-06
2.82511e-05
3.90218e-06
2.82014e-05
3.6711e-06
2.81452e-05
3.43257e-06
2.80834e-05
3.19031e-06
2.80171e-05
2.94905e-06
2.79471e-05
2.71502e-06
2.78741e-05
2.49646e-06
2.77988e-05
2.30435e-06
2.77218e-05
2.15352e-06
2.0646e-06
2.50128e-05
1.95814e-07
2.5052e-05
5.96441e-07
2.51175e-05
1.00143e-06
2.52084e-05
1.40629e-06
2.5323e-05
1.80673e-06
2.54591e-05
2.19856e-06
2.5614e-05
2.5777e-06
2.57844e-05
2.94039e-06
2.59668e-05
3.28323e-06
2.61577e-05
3.60325e-06
2.63534e-05
3.89794e-06
2.65504e-05
4.16528e-06
2.67453e-05
4.40373e-06
2.69352e-05
4.61222e-06
2.71173e-05
4.79011e-06
2.72894e-05
4.93713e-06
2.74494e-05
5.05336e-06
2.75959e-05
5.13915e-06
2.77278e-05
5.19513e-06
2.78443e-05
5.22207e-06
2.7945e-05
5.22093e-06
2.80298e-05
5.19276e-06
2.80988e-05
5.13871e-06
2.81524e-05
5.05999e-06
2.81912e-05
4.95786e-06
2.8216e-05
4.83364e-06
2.82276e-05
4.68871e-06
2.82269e-05
4.52455e-06
2.82149e-05
4.34274e-06
2.81928e-05
4.14506e-06
2.81614e-05
3.93356e-06
2.81218e-05
3.71066e-06
2.8075e-05
3.47936e-06
2.80219e-05
3.2434e-06
2.79634e-05
3.00759e-06
2.79002e-05
2.77822e-06
2.78331e-05
2.56357e-06
2.77628e-05
2.37466e-06
2.76901e-05
2.22623e-06
2.13877e-06
2.50113e-05
1.8456e-07
2.50457e-05
5.61955e-07
2.51035e-05
9.43682e-07
2.51839e-05
1.32591e-06
2.52856e-05
1.70497e-06
2.5407e-05
2.07721e-06
2.55456e-05
2.43903e-06
2.5699e-05
2.78706e-06
2.5864e-05
3.11816e-06
2.60378e-05
3.42952e-06
2.6217e-05
3.71868e-06
2.63987e-05
3.98359e-06
2.65799e-05
4.22257e-06
2.67578e-05
4.43434e-06
2.69299e-05
4.618e-06
2.7094e-05
4.77299e-06
2.72483e-05
4.89905e-06
2.73913e-05
4.99622e-06
2.75216e-05
5.06477e-06
2.76385e-05
5.10517e-06
2.77414e-05
5.11805e-06
2.78299e-05
5.1042e-06
2.79041e-05
5.06452e-06
2.79641e-05
4.99998e-06
2.80103e-05
4.91167e-06
2.80432e-05
4.80076e-06
2.80634e-05
4.66848e-06
2.80718e-05
4.51623e-06
2.8069e-05
4.34552e-06
2.80559e-05
4.15809e-06
2.80335e-05
3.95598e-06
2.80026e-05
3.74161e-06
2.79639e-05
3.518e-06
2.79184e-05
3.28892e-06
2.78668e-05
3.05923e-06
2.78098e-05
2.83523e-06
2.77481e-05
2.62524e-06
2.76826e-05
2.44021e-06
2.7614e-05
2.29478e-06
2.20911e-06
2.50099e-05
1.74686e-07
2.50402e-05
5.31607e-07
2.50912e-05
8.92734e-07
2.51623e-05
1.25481e-06
2.52526e-05
1.61469e-06
2.53606e-05
1.96919e-06
2.54844e-05
2.31516e-06
2.5622e-05
2.64953e-06
2.57707e-05
2.96944e-06
2.5928e-05
3.27224e-06
2.60911e-05
3.55554e-06
2.62574e-05
3.81728e-06
2.64243e-05
4.0557e-06
2.65892e-05
4.26939e-06
2.675e-05
4.45724e-06
2.69045e-05
4.61846e-06
2.7051e-05
4.75253e-06
2.71881e-05
4.85921e-06
2.73143e-05
4.93848e-06
2.7429e-05
4.99055e-06
2.75312e-05
5.01578e-06
2.76207e-05
5.0147e-06
2.76973e-05
4.98798e-06
2.77608e-05
4.9364e-06
2.78117e-05
4.86086e-06
2.785e-05
4.76237e-06
2.78765e-05
4.64206e-06
2.78915e-05
4.5012e-06
2.78958e-05
4.34125e-06
2.789e-05
4.1639e-06
2.78748e-05
3.97115e-06
2.7851e-05
3.76543e-06
2.78192e-05
3.54975e-06
2.77802e-05
3.32792e-06
2.77346e-05
3.1048e-06
2.76832e-05
2.8867e-06
2.76265e-05
2.68191e-06
2.75654e-05
2.50128e-06
2.75009e-05
2.35928e-06
2.27569e-06
2.50087e-05
1.66015e-07
2.50354e-05
5.04873e-07
2.50804e-05
8.47751e-07
2.51433e-05
1.1919e-06
2.52234e-05
1.53463e-06
2.53194e-05
1.87318e-06
2.54298e-05
2.20474e-06
2.55528e-05
2.52657e-06
2.56862e-05
2.83602e-06
2.58278e-05
3.13059e-06
2.59754e-05
3.40798e-06
2.61265e-05
3.66616e-06
2.62789e-05
3.90331e-06
2.64304e-05
4.11792e-06
2.65789e-05
4.30873e-06
2.67226e-05
4.47477e-06
2.68598e-05
4.61533e-06
2.69891e-05
4.72992e-06
2.71092e-05
4.8183e-06
2.72194e-05
4.88043e-06
2.73187e-05
4.91645e-06
2.74067e-05
4.92667e-06
2.74832e-05
4.91155e-06
2.75479e-05
4.87169e-06
2.76009e-05
4.80782e-06
2.76425e-05
4.7208e-06
2.76729e-05
4.61165e-06
2.76926e-05
4.48154e-06
2.77019e-05
4.33186e-06
2.77016e-05
4.16424e-06
2.76921e-05
3.98065e-06
2.7674e-05
3.78352e-06
2.76479e-05
3.57584e-06
2.76144e-05
3.36142e-06
2.75741e-05
3.14512e-06
2.75276e-05
2.93325e-06
2.74754e-05
2.73401e-06
2.74186e-05
2.55816e-06
2.7358e-05
2.4199e-06
2.33856e-06
2.50076e-05
1.58385e-07
2.50312e-05
4.8127e-07
2.5071e-05
8.07963e-07
2.51267e-05
1.13617e-06
2.51978e-05
1.46362e-06
2.5283e-05
1.78789e-06
2.53813e-05
2.1065e-06
2.54909e-05
2.41695e-06
2.56101e-05
2.71679e-06
2.5737e-05
3.00366e-06
2.58697e-05
3.27536e-06
2.6006e-05
3.52984e-06
2.6144e-05
3.7653e-06
2.62818e-05
3.98014e-06
2.64175e-05
4.173e-06
2.65495e-05
4.34276e-06
2.66763e-05
4.48855e-06
2.67965e-05
4.60971e-06
2.6909e-05
4.70579e-06
2.70129e-05
4.77655e-06
2.71074e-05
4.82195e-06
2.7192e-05
4.84209e-06
2.72663e-05
4.83727e-06
2.73301e-05
4.8079e-06
2.73833e-05
4.75459e-06
2.7426e-05
4.67805e-06
2.74585e-05
4.57919e-06
2.74809e-05
4.45909e-06
2.74937e-05
4.31907e-06
2.74973e-05
4.16071e-06
2.7492e-05
3.98594e-06
2.74783e-05
3.79716e-06
2.74568e-05
3.59736e-06
2.74279e-05
3.39034e-06
2.7392e-05
3.18096e-06
2.73498e-05
2.97546e-06
2.73019e-05
2.78199e-06
2.72489e-05
2.61112e-06
2.7192e-05
2.47679e-06
2.39782e-06
2.50067e-05
1.51639e-07
2.50277e-05
4.60339e-07
2.5063e-05
7.72644e-07
2.51125e-05
1.08669e-06
2.51755e-05
1.40056e-06
2.52513e-05
1.71215e-06
2.53385e-05
2.01923e-06
2.5436e-05
2.3195e-06
2.55421e-05
2.61068e-06
2.56552e-05
2.89053e-06
2.57737e-05
3.1569e-06
2.58958e-05
3.40779e-06
2.60197e-05
3.64138e-06
2.61438e-05
3.85601e-06
2.62666e-05
4.05026e-06
2.63864e-05
4.2229e-06
2.6502e-05
4.37292e-06
2.66122e-05
4.49951e-06
2.67159e-05
4.60208e-06
2.68123e-05
4.68022e-06
2.69005e-05
4.73372e-06
2.69801e-05
4.76252e-06
2.70506e-05
4.76677e-06
2.71117e-05
4.74673e-06
2.71635e-05
4.70287e-06
2.72057e-05
4.6358e-06
2.72386e-05
4.54632e-06
2.72622e-05
4.43543e-06
2.72769e-05
4.30438e-06
2.72829e-05
4.15469e-06
2.72806e-05
3.98826e-06
2.72703e-05
3.80747e-06
2.72524e-05
3.6153e-06
2.72272e-05
3.41553e-06
2.71951e-05
3.21298e-06
2.71567e-05
3.01387e-06
2.71125e-05
2.82622e-06
2.70632e-05
2.66043e-06
2.70099e-05
2.53011e-06