/*--------------------------------*- C++ -*----------------------------------*\
| =========                 |                                                 |
| \\      /  F ield         | OpenFOAM: The Open Source CFD Toolbox           |
|  \\    /   O peration     | Version:  v2012                                 |
|   \\  /    A nd           | Website:  www.openfoam.com                      |
|    \\/     M anipulation  |                                                 |
\*---------------------------------------------------------------------------*/
FoamFile
{
    version     2.0;
    format      ascii;
    class       volVectorField;
    location    "0.6";
    object      U;
}
// * * * * * * * * * * * * * * * * * * * * * * * * * * * * * * * * * * * * * //

dimensions      [0 1 -1 0 0 0 0];


internalField   nonuniform List<vector> 
1600
(
(0.711037 0.139454 0)
(0.607771 0.126613 0)
(0.445318 0.0759452 0)
(0.325828 0.0431764 0)
(0.254696 0.0251422 0)
(0.209493 0.0153453 0)
(0.178295 0.00996216 0)
(0.155677 0.00690088 0)
(0.138598 0.00506129 0)
(0.125229 0.00388435 0)
(0.11446 0.00308571 0)
(0.105594 0.0025161 0)
(0.0981658 0.00209325 0)
(0.0918529 0.00176923 0)
(0.086425 0.00151457 0)
(0.0817123 0.00131021 0)
(0.0775868 0.0011433 0)
(0.0739504 0.00100486 0)
(0.0707264 0.000888465 0)
(0.0678546 0.000789357 0)
(0.0652864 0.000703977 0)
(0.0629831 0.000629605 0)
(0.0609129 0.000564132 0)
(0.0590498 0.000505901 0)
(0.0573726 0.000453602 0)
(0.0558633 0.000406195 0)
(0.0545073 0.000362858 0)
(0.0532918 0.000322958 0)
(0.052206 0.000286043 0)
(0.0512401 0.000251846 0)
(0.050385 0.000220312 0)
(0.0496314 0.000191651 0)
(0.0489693 0.000166432 0)
(0.0483867 0.000145759 0)
(0.0478682 0.000131491 0)
(0.0473946 0.000126493 0)
(0.0469413 0.000135696 0)
(0.0464591 0.000168693 0)
(0.045842 0.000231679 0)
(0.0451829 0.000287668 0)
(0.990953 0.269779 0)
(0.984192 0.296549 0)
(0.868803 0.216299 0)
(0.739434 0.147751 0)
(0.633116 0.101115 0)
(0.549347 0.0707686 0)
(0.483318 0.0512196 0)
(0.431032 0.0384363 0)
(0.389134 0.0298105 0)
(0.355026 0.0237742 0)
(0.326817 0.0193997 0)
(0.303152 0.0161293 0)
(0.283046 0.0136179 0)
(0.265775 0.0116447 0)
(0.250796 0.0100639 0)
(0.237698 0.00877574 0)
(0.226164 0.00771035 0)
(0.215945 0.00681732 0)
(0.206845 0.00605959 0)
(0.198707 0.00540936 0)
(0.191404 0.00484544 0)
(0.184833 0.00435145 0)
(0.17891 0.00391454 0)
(0.173563 0.00352457 0)
(0.168736 0.00317345 0)
(0.164379 0.00285476 0)
(0.160452 0.00256342 0)
(0.156919 0.00229554 0)
(0.153749 0.00204832 0)
(0.150914 0.00182004 0)
(0.148389 0.00161017 0)
(0.146148 0.00141953 0)
(0.144163 0.0012506 0)
(0.142404 0.00110792 0)
(0.140833 0.000998597 0)
(0.139408 0.00093245 0)
(0.138084 0.000923157 0)
(0.136781 0.000989968 0)
(0.135347 0.0011336 0)
(0.134017 0.00125617 0)
(1.02867 0.225552 0)
(1.06695 0.333364 0)
(1.0327 0.306477 0)
(0.957534 0.25027 0)
(0.872318 0.19619 0)
(0.790731 0.152256 0)
(0.717781 0.118956 0)
(0.654635 0.0942958 0)
(0.600661 0.0760199 0)
(0.55461 0.062315 0)
(0.515185 0.0518697 0)
(0.481238 0.0437677 0)
(0.451814 0.0373738 0)
(0.426138 0.0322454 0)
(0.403589 0.0280701 0)
(0.383668 0.0246239 0)
(0.365976 0.0217435 0)
(0.350189 0.0193079 0)
(0.336044 0.0172261 0)
(0.323328 0.0154284 0)
(0.311864 0.013861 0)
(0.301506 0.0124817 0)
(0.292133 0.0112571 0)
(0.283644 0.0101607 0)
(0.275954 0.00917103 0)
(0.26899 0.00827117 0)
(0.262693 0.00744758 0)
(0.257008 0.00668988 0)
(0.251889 0.0059905 0)
(0.247295 0.0053447 0)
(0.243185 0.00475066 0)
(0.239521 0.00420978 0)
(0.236263 0.00372707 0)
(0.233368 0.00331164 0)
(0.230787 0.00297687 0)
(0.228468 0.00273975 0)
(0.226358 0.00261948 0)
(0.224372 0.00263242 0)
(0.222331 0.00275753 0)
(0.220556 0.00286642 0)
(1.02441 0.165378 0)
(1.0707 0.308643 0)
(1.08302 0.335429 0)
(1.05663 0.310671 0)
(1.00623 0.26861 0)
(0.94559 0.225237 0)
(0.883213 0.186899 0)
(0.823614 0.155132 0)
(0.768816 0.129508 0)
(0.719421 0.109012 0)
(0.67532 0.0926012 0)
(0.636087 0.0793781 0)
(0.601198 0.0686294 0)
(0.570123 0.0598048 0)
(0.542375 0.052485 0)
(0.517526 0.0463513 0)
(0.495205 0.0411605 0)
(0.475098 0.0367254 0)
(0.456936 0.0329011 0)
(0.440494 0.0295739 0)
(0.42558 0.0266544 0)
(0.412032 0.0240711 0)
(0.399714 0.0217669 0)
(0.388508 0.0196955 0)
(0.378316 0.0178197 0)
(0.369051 0.0161094 0)
(0.36064 0.0145405 0)
(0.35302 0.0130944 0)
(0.346133 0.0117575 0)
(0.339928 0.0105209 0)
(0.334357 0.00938063 0)
(0.329373 0.00833802 0)
(0.324929 0.00740002 0)
(0.320976 0.00657945 0)
(0.317459 0.00589464 0)
(0.314322 0.00536768 0)
(0.311515 0.00502054 0)
(0.308944 0.00486552 0)
(0.306401 0.00486928 0)
(0.304275 0.00490341 0)
(1.01625 0.123036 0)
(1.05677 0.268108 0)
(1.08815 0.326761 0)
(1.09275 0.331875 0)
(1.07275 0.309685 0)
(1.03665 0.276635 0)
(0.99191 0.241718 0)
(0.943797 0.209155 0)
(0.895682 0.180508 0)
(0.849496 0.156019 0)
(0.806211 0.135364 0)
(0.766208 0.118021 0)
(0.729535 0.103452 0)
(0.696056 0.0911677 0)
(0.665555 0.0807552 0)
(0.637781 0.0718726 0)
(0.612484 0.0642426 0)
(0.589425 0.0576412 0)
(0.568388 0.0518879 0)
(0.549177 0.0468368 0)
(0.53162 0.0423697 0)
(0.515566 0.0383903 0)
(0.500882 0.03482 0)
(0.487452 0.0315942 0)
(0.475177 0.0286603 0)
(0.463969 0.0259752 0)
(0.45375 0.0235043 0)
(0.444454 0.0212203 0)
(0.436019 0.0191031 0)
(0.428389 0.0171391 0)
(0.421514 0.0153217 0)
(0.415344 0.0136514 0)
(0.409828 0.0121362 0)
(0.404916 0.0107913 0)
(0.400553 0.00963885 0)
(0.396683 0.00870474 0)
(0.393257 0.00801409 0)
(0.390171 0.00758025 0)
(0.387191 0.00737254 0)
(0.384763 0.00728274 0)
(1.01025 0.094457 0)
(1.04225 0.227936 0)
(1.07807 0.30129 0)
(1.09884 0.32826 0)
(1.10005 0.325568 0)
(1.08494 0.306489 0)
(1.05825 0.279986 0)
(1.02436 0.251464 0)
(0.986714 0.223838 0)
(0.947791 0.19848 0)
(0.909204 0.175873 0)
(0.871943 0.156035 0)
(0.836562 0.138764 0)
(0.803331 0.123769 0)
(0.772336 0.110747 0)
(0.743557 0.0994122 0)
(0.716911 0.0895084 0)
(0.692282 0.0808151 0)
(0.669544 0.0731445 0)
(0.648565 0.0663381 0)
(0.629219 0.0602629 0)
(0.61139 0.0548076 0)
(0.594967 0.0498787 0)
(0.579854 0.0453985 0)
(0.56596 0.0413019 0)
(0.553208 0.0375353 0)
(0.541525 0.0340548 0)
(0.530847 0.0308256 0)
(0.521116 0.0278216 0)
(0.512279 0.0250248 0)
(0.504285 0.0224257 0)
(0.497086 0.0200236 0)
(0.490634 0.017827 0)
(0.48488 0.0158528 0)
(0.479772 0.0141264 0)
(0.475256 0.0126781 0)
(0.471282 0.0115385 0)
(0.467741 0.010729 0)
(0.464371 0.0102339 0)
(0.461675 0.00997869 0)
(1.00654 0.0746498 0)
(1.03107 0.192931 0)
(1.06495 0.270495 0)
(1.09232 0.311114 0)
(1.10627 0.324066 0)
(1.10648 0.318678 0)
(1.09507 0.30246 0)
(1.07487 0.280772 0)
(1.04869 0.2571 0)
(1.01887 0.233529 0)
(0.987213 0.211198 0)
(0.955029 0.190644 0)
(0.923201 0.172044 0)
(0.892311 0.155375 0)
(0.862713 0.140513 0)
(0.834608 0.127284 0)
(0.80809 0.115505 0)
(0.783183 0.104998 0)
(0.75987 0.0955966 0)
(0.738103 0.0871536 0)
(0.717822 0.0795382 0)
(0.698958 0.0726368 0)
(0.681442 0.0663511 0)
(0.665205 0.060597 0)
(0.650181 0.0553027 0)
(0.636308 0.050408 0)
(0.623529 0.0458627 0)
(0.611789 0.0416266 0)
(0.60104 0.0376689 0)
(0.591234 0.0339682 0)
(0.582327 0.0305127 0)
(0.574278 0.0273006 0)
(0.567042 0.0243406 0)
(0.560575 0.0216517 0)
(0.55483 0.0192627 0)
(0.549757 0.0172097 0)
(0.545308 0.0155324 0)
(0.541366 0.0142662 0)
(0.537649 0.0134204 0)
(0.534715 0.0129645 0)
(1.00434 0.0605537 0)
(1.02316 0.163896 0)
(1.05293 0.239886 0)
(1.08157 0.287713 0)
(1.10209 0.311758 0)
(1.11232 0.317903 0)
(1.11243 0.311764 0)
(1.10381 0.297954 0)
(1.08831 0.279905 0)
(1.06782 0.259985 0)
(1.04396 0.239725 0)
(1.01809 0.220053 0)
(0.991226 0.201482 0)
(0.964133 0.184255 0)
(0.937355 0.168447 0)
(0.911265 0.154031 0)
(0.886112 0.140929 0)
(0.862051 0.129031 0)
(0.839173 0.118222 0)
(0.817521 0.108384 0)
(0.797107 0.0994057 0)
(0.777921 0.0911852 0)
(0.759941 0.0836301 0)
(0.743136 0.0766583 0)
(0.727471 0.070198 0)
(0.712909 0.0641872 0)
(0.699412 0.0585736 0)
(0.686942 0.0533144 0)
(0.675464 0.0483766 0)
(0.664943 0.0437366 0)
(0.655344 0.0393817 0)
(0.646633 0.0353096 0)
(0.638776 0.0315298 0)
(0.631735 0.0280638 0)
(0.625468 0.0249449 0)
(0.619932 0.0222168 0)
(0.615082 0.0199317 0)
(0.610795 0.0181444 0)
(0.606773 0.0168966 0)
(0.603633 0.0162099 0)
(1.00303 0.0501995 0)
(1.01763 0.140198 0)
(1.043 0.21179 0)
(1.07029 0.262403 0)
(1.09342 0.293521 0)
(1.10952 0.308471 0)
(1.11762 0.311089 0)
(1.11795 0.304983 0)
(1.1115 0.293155 0)
(1.09954 0.277919 0)
(1.08336 0.260948 0)
(1.06415 0.243393 0)
(1.04291 0.226006 0)
(1.02046 0.209249 0)
(0.997441 0.193382 0)
(0.97433 0.178526 0)
(0.951488 0.164717 0)
(0.929177 0.151935 0)
(0.90758 0.140125 0)
(0.886824 0.129219 0)
(0.866991 0.119137 0)
(0.848131 0.109801 0)
(0.830273 0.101135 0)
(0.813426 0.093066 0)
(0.797591 0.0855295 0)
(0.782759 0.0784674 0)
(0.768918 0.0718295 0)
(0.75605 0.065574 0)
(0.744137 0.059668 0)
(0.733158 0.0540885 0)
(0.723092 0.0488227 0)
(0.713916 0.0438694 0)
(0.705606 0.0392399 0)
(0.698134 0.0349592 0)
(0.691465 0.0310661 0)
(0.685563 0.0276142 0)
(0.680387 0.0246707 0)
(0.675813 0.0223146 0)
(0.671531 0.0206254 0)
(0.668216 0.0196837 0)
(1.0022 0.0423438 0)
(1.01373 0.120868 0)
(1.0351 0.186936 0)
(1.05996 0.237549 0)
(1.08335 0.272631 0)
(1.1024 0.293783 0)
(1.11557 0.303415 0)
(1.12236 0.304136 0)
(1.12304 0.29837 0)
(1.11831 0.288163 0)
(1.10908 0.275137 0)
(1.09626 0.260513 0)
(1.08072 0.245174 0)
(1.06325 0.229729 0)
(1.04448 0.214583 0)
(1.02494 0.199986 0)
(1.00506 0.186082 0)
(0.985157 0.172939 0)
(0.965497 0.160574 0)
(0.946269 0.148972 0)
(0.927615 0.138098 0)
(0.90964 0.127903 0)
(0.892419 0.118335 0)
(0.876005 0.10934 0)
(0.860432 0.100864 0)
(0.845724 0.0928598 0)
(0.831894 0.0852827 0)
(0.818946 0.0780955 0)
(0.806882 0.0712687 0)
(0.795699 0.0647816 0)
(0.78539 0.0586237 0)
(0.775945 0.052796 0)
(0.767352 0.0473132 0)
(0.759593 0.0422046 0)
(0.752644 0.0375166 0)
(0.746474 0.0333139 0)
(0.741051 0.0296817 0)
(0.736248 0.026726 0)
(0.731754 0.0245682 0)
(0.728297 0.0233539 0)
(1.00167 0.0362157 0)
(1.01091 0.105011 0)
(1.02887 0.165326 0)
(1.05099 0.214307 0)
(1.07339 0.25112 0)
(1.09346 0.276293 0)
(1.10951 0.291186 0)
(1.12064 0.297558 0)
(1.12662 0.297237 0)
(1.12768 0.291911 0)
(1.12434 0.283027 0)
(1.11726 0.271759 0)
(1.1071 0.259022 0)
(1.09453 0.245502 0)
(1.08013 0.231695 0)
(1.06444 0.217951 0)
(1.04788 0.204501 0)
(1.03082 0.191494 0)
(1.01355 0.179014 0)
(0.996323 0.167101 0)
(0.979314 0.155766 0)
(0.962676 0.144997 0)
(0.946525 0.13477 0)
(0.93095 0.125052 0)
(0.916021 0.11581 0)
(0.901787 0.107006 0)
(0.88829 0.0986079 0)
(0.875557 0.0905854 0)
(0.86361 0.0829151 0)
(0.852463 0.0755811 0)
(0.842125 0.068577 0)
(0.8326 0.0619079 0)
(0.82389 0.0555929 0)
(0.815987 0.0496673 0)
(0.808876 0.0441862 0)
(0.802538 0.0392272 0)
(0.796945 0.0348951 0)
(0.791976 0.0313254 0)
(0.787316 0.0286848 0)
(0.783753 0.0271873 0)
(1.0013 0.0313275 0)
(1.00882 0.0918991 0)
(1.02396 0.146671 0)
(1.0434 0.193142 0)
(1.06418 0.230175 0)
(1.0841 0.257671 0)
(1.10149 0.276269 0)
(1.11528 0.287066 0)
(1.12496 0.291358 0)
(1.13042 0.290458 0)
(1.13185 0.285578 0)
(1.12965 0.277772 0)
(1.12428 0.267914 0)
(1.11627 0.256701 0)
(1.1061 0.244675 0)
(1.09426 0.232243 0)
(1.08115 0.219703 0)
(1.06714 0.207264 0)
(1.05254 0.195071 0)
(1.03762 0.183213 0)
(1.02258 0.171745 0)
(1.00762 0.160692 0)
(0.992878 0.150061 0)
(0.978473 0.139844 0)
(0.964502 0.130027 0)
(0.951044 0.12059 0)
(0.938161 0.111513 0)
(0.925904 0.102776 0)
(0.914314 0.0943637 0)
(0.903422 0.0862674 0)
(0.893253 0.0784864 0)
(0.883827 0.0710315 0)
(0.875155 0.0639278 0)
(0.867244 0.0572178 0)
(0.860088 0.0509665 0)
(0.853677 0.0452657 0)
(0.847993 0.0402411 0)
(0.842916 0.0360594 0)
(0.838141 0.0329338 0)
(0.834506 0.0311496 0)
(1.00104 0.0273579 0)
(1.00724 0.0809651 0)
(1.02005 0.130603 0)
(1.03705 0.174157 0)
(1.05598 0.210432 0)
(1.07503 0.238994 0)
(1.09272 0.260015 0)
(1.10794 0.274103 0)
(1.12003 0.282121 0)
(1.12865 0.285035 0)
(1.13377 0.283811 0)
(1.13554 0.279342 0)
(1.13426 0.272413 0)
(1.13029 0.263688 0)
(1.12401 0.253709 0)
(1.11583 0.242909 0)
(1.1061 0.231622 0)
(1.09517 0.220103 0)
(1.08335 0.208537 0)
(1.07089 0.197059 0)
(1.05804 0.185761 0)
(1.04498 0.174702 0)
(1.03189 0.163919 0)
(1.0189 0.153429 0)
(1.00613 0.143239 0)
(0.99369 0.133347 0)
(0.981655 0.123748 0)
(0.970095 0.114433 0)
(0.959069 0.105398 0)
(0.948625 0.0966421 0)
(0.938803 0.0881724 0)
(0.929635 0.0800065 0)
(0.921145 0.0721766 0)
(0.913352 0.0647339 0)
(0.906259 0.057754 0)
(0.899867 0.051344 0)
(0.894164 0.0456514 0)
(0.88904 0.0408745 0)
(0.884197 0.0372738 0)
(0.880527 0.0352067 0)
(1.00084 0.0240874 0)
(1.00601 0.0717735 0)
(1.01691 0.116752 0)
(1.03174 0.15727 0)
(1.04879 0.192192 0)
(1.06662 0.220927 0)
(1.08393 0.243363 0)
(1.0997 0.259767 0)
(1.11318 0.270666 0)
(1.12394 0.276733 0)
(1.13177 0.2787 0)
(1.13665 0.27729 0)
(1.13871 0.273176 0)
(1.13819 0.266955 0)
(1.13535 0.25914 0)
(1.1305 0.250158 0)
(1.12395 0.240358 0)
(1.116 0.230017 0)
(1.10692 0.219351 0)
(1.09697 0.208524 0)
(1.08638 0.197659 0)
(1.07534 0.186845 0)
(1.06405 0.176144 0)
(1.05264 0.165599 0)
(1.04126 0.155234 0)
(1.03001 0.145068 0)
(1.019 0.135108 0)
(1.00832 0.125362 0)
(0.998028 0.115834 0)
(0.988194 0.106534 0)
(0.978869 0.0974772 0)
(0.970098 0.0886897 0)
(0.961918 0.0802116 0)
(0.954354 0.0721036 0)
(0.947423 0.0644528 0)
(0.941133 0.057382 0)
(0.935482 0.0510608 0)
(0.930366 0.045719 0)
(0.925501 0.0416642 0)
(0.921831 0.0393249 0)
(1.00069 0.0213608 0)
(1.00504 0.0639893 0)
(1.01436 0.104789 0)
(1.0273 0.142318 0)
(1.04256 0.175552 0)
(1.059 0.20385 0)
(1.07552 0.226939 0)
(1.09122 0.244858 0)
(1.10535 0.257886 0)
(1.11743 0.266462 0)
(1.12713 0.271114 0)
(1.13434 0.272402 0)
(1.13904 0.270878 0)
(1.14135 0.267057 0)
(1.14144 0.2614 0)
(1.13953 0.254311 0)
(1.13585 0.246128 0)
(1.13066 0.237137 0)
(1.12419 0.227568 0)
(1.11668 0.217603 0)
(1.10833 0.207388 0)
(1.09935 0.197033 0)
(1.08992 0.186623 0)
(1.08018 0.176219 0)
(1.07029 0.165867 0)
(1.06037 0.155599 0)
(1.05051 0.145441 0)
(1.04083 0.13541 0)
(1.03141 0.125523 0)
(1.02231 0.115801 0)
(1.01361 0.106268 0)
(1.00535 0.0969586 0)
(0.997585 0.0879217 0)
(0.990349 0.0792279 0)
(0.983666 0.0709767 0)
(0.977552 0.0633065 0)
(0.972016 0.0564087 0)
(0.96696 0.0505443 0)
(0.962116 0.0460663 0)
(0.958478 0.0434715 0)
(1.00058 0.0190653 0)
(1.00427 0.0573533 0)
(1.01227 0.0944283 0)
(1.02358 0.129108 0)
(1.03718 0.160495 0)
(1.05218 0.187958 0)
(1.0677 0.211141 0)
(1.08291 0.229941 0)
(1.09716 0.244462 0)
(1.10991 0.254961 0)
(1.12082 0.261798 0)
(1.12967 0.265388 0)
(1.13636 0.266166 0)
(1.14092 0.264559 0)
(1.14343 0.260966 0)
(1.14401 0.25575 0)
(1.14285 0.24923 0)
(1.14014 0.241681 0)
(1.13607 0.233334 0)
(1.13085 0.224382 0)
(1.12466 0.214982 0)
(1.11769 0.205259 0)
(1.1101 0.195314 0)
(1.10206 0.185225 0)
(1.09371 0.175053 0)
(1.08516 0.164846 0)
(1.07655 0.15464 0)
(1.06796 0.144467 0)
(1.05949 0.134356 0)
(1.05123 0.124335 0)
(1.04323 0.11444 0)
(1.03558 0.104713 0)
(1.02831 0.0952143 0)
(1.02148 0.086023 0)
(1.01512 0.0772511 0)
(1.00925 0.0690529 0)
(1.00388 0.061641 0)
(0.998932 0.0553059 0)
(0.994149 0.0504436 0)
(0.990574 0.0476156 0)
(1.00049 0.0171168 0)
(1.00364 0.0516627 0)
(1.01055 0.0854296 0)
(1.02044 0.117448 0)
(1.03253 0.146943 0)
(1.04614 0.173325 0)
(1.06053 0.196207 0)
(1.07501 0.215401 0)
(1.08898 0.230893 0)
(1.10194 0.242805 0)
(1.11351 0.251363 0)
(1.12344 0.25686 0)
(1.13157 0.259625 0)
(1.13784 0.259998 0)
(1.14227 0.258314 0)
(1.14491 0.254887 0)
(1.14589 0.250004 0)
(1.14534 0.243922 0)
(1.14341 0.236862 0)
(1.14027 0.229016 0)
(1.13609 0.220546 0)
(1.13102 0.211586 0)
(1.12522 0.202246 0)
(1.11884 0.192615 0)
(1.11201 0.182767 0)
(1.10486 0.172762 0)
(1.0975 0.162647 0)
(1.09005 0.152466 0)
(1.08259 0.142257 0)
(1.07522 0.132059 0)
(1.068 0.121915 0)
(1.06102 0.111878 0)
(1.05432 0.102017 0)
(1.04795 0.0924212 0)
(1.04197 0.0832147 0)
(1.03639 0.074567 0)
(1.03124 0.0667108 0)
(1.02643 0.0599643 0)
(1.02175 0.0547634 0)
(1.01826 0.0517287 0)
(1.00041 0.0154513 0)
(1.00312 0.0467577 0)
(1.00911 0.0775915 0)
(1.01777 0.107156 0)
(1.02852 0.134788 0)
(1.0408 0.159952 0)
(1.05404 0.182264 0)
(1.06764 0.201489 0)
(1.08108 0.217536 0)
(1.0939 0.230432 0)
(1.10572 0.2403 0)
(1.11627 0.247333 0)
(1.12536 0.251768 0)
(1.13287 0.253867 0)
(1.13876 0.2539 0)
(1.14304 0.25213 0)
(1.14578 0.248808 0)
(1.14706 0.244162 0)
(1.14699 0.238401 0)
(1.14569 0.231706 0)
(1.14332 0.224237 0)
(1.14 0.216128 0)
(1.13587 0.207496 0)
(1.13106 0.198436 0)
(1.1257 0.189031 0)
(1.11992 0.179349 0)
(1.11382 0.169447 0)
(1.10751 0.159377 0)
(1.10108 0.149188 0)
(1.09462 0.138926 0)
(1.08822 0.128643 0)
(1.08194 0.118401 0)
(1.07584 0.108277 0)
(1.06999 0.0983719 0)
(1.06442 0.0888198 0)
(1.05917 0.079805 0)
(1.05428 0.0715791 0)
(1.04965 0.0644856 0)
(1.04509 0.0589964 0)
(1.04172 0.0557848 0)
(1.00035 0.0140193 0)
(1.00269 0.042511 0)
(1.0079 0.070746 0)
(1.0155 0.0980672 0)
(1.02504 0.12391 0)
(1.0361 0.147799 0)
(1.04819 0.169366 0)
(1.06084 0.188358 0)
(1.07359 0.204638 0)
(1.08602 0.218167 0)
(1.09778 0.228992 0)
(1.10859 0.237226 0)
(1.11824 0.243031 0)
(1.12658 0.246599 0)
(1.13354 0.24814 0)
(1.13908 0.247867 0)
(1.14322 0.245993 0)
(1.146 0.242717 0)
(1.14749 0.238224 0)
(1.14779 0.232683 0)
(1.14701 0.226243 0)
(1.14525 0.219039 0)
(1.14264 0.211184 0)
(1.13929 0.202778 0)
(1.13532 0.193908 0)
(1.13083 0.184647 0)
(1.12594 0.175061 0)
(1.12074 0.165207 0)
(1.11532 0.155142 0)
(1.10978 0.144919 0)
(1.1042 0.1346 0)
(1.09864 0.124253 0)
(1.09318 0.113963 0)
(1.08786 0.103841 0)
(1.08273 0.0940326 0)
(1.07785 0.0847345 0)
(1.07323 0.0762155 0)
(1.0688 0.0688421 0)
(1.0644 0.0631178 0)
(1.06116 0.0597609 0)
(1.0003 0.012782 0)
(1.00233 0.0388201 0)
(1.00688 0.064753 0)
(1.01356 0.0900363 0)
(1.02203 0.114191 0)
(1.03195 0.136798 0)
(1.04295 0.157516 0)
(1.05463 0.176092 0)
(1.06658 0.192362 0)
(1.07846 0.206245 0)
(1.08993 0.217731 0)
(1.10072 0.226874 0)
(1.11062 0.233774 0)
(1.11946 0.238565 0)
(1.12714 0.241403 0)
(1.13359 0.242456 0)
(1.1388 0.241896 0)
(1.14276 0.239893 0)
(1.14553 0.236606 0)
(1.14717 0.232189 0)
(1.14775 0.226777 0)
(1.14736 0.220496 0)
(1.14609 0.213458 0)
(1.14405 0.205761 0)
(1.14134 0.197493 0)
(1.13806 0.188729 0)
(1.1343 0.179541 0)
(1.13016 0.16999 0)
(1.12572 0.160139 0)
(1.12107 0.150049 0)
(1.11629 0.139786 0)
(1.11145 0.129425 0)
(1.10662 0.119061 0)
(1.10184 0.108812 0)
(1.09718 0.0988326 0)
(1.09267 0.0893335 0)
(1.08834 0.080598 0)
(1.08414 0.0730124 0)
(1.07991 0.0671068 0)
(1.07682 0.0636375 0)
(1.00026 0.0117085 0)
(1.00203 0.0356021 0)
(1.006 0.0594954 0)
(1.01189 0.0829356 0)
(1.0194 0.105516 0)
(1.0283 0.12687 0)
(1.03826 0.146689 0)
(1.04897 0.164726 0)
(1.06009 0.180808 0)
(1.07131 0.194825 0)
(1.08232 0.206733 0)
(1.09288 0.216537 0)
(1.10278 0.22429 0)
(1.11185 0.230078 0)
(1.11996 0.23401 0)
(1.12702 0.236214 0)
(1.133 0.236824 0)
(1.13787 0.235981 0)
(1.14164 0.233819 0)
(1.14436 0.23047 0)
(1.14607 0.226056 0)
(1.14684 0.220694 0)
(1.14674 0.214485 0)
(1.14585 0.207527 0)
(1.14427 0.199903 0)
(1.14208 0.191691 0)
(1.13935 0.182964 0)
(1.13619 0.173787 0)
(1.13267 0.164225 0)
(1.12887 0.154346 0)
(1.12486 0.144219 0)
(1.12071 0.133929 0)
(1.1165 0.123573 0)
(1.11226 0.113279 0)
(1.10805 0.103212 0)
(1.10392 0.0935907 0)
(1.0999 0.0847128 0)
(1.09594 0.076981 0)
(1.09188 0.0709475 0)
(1.08897 0.0673982 0)
(1.00023 0.0107742 0)
(1.00177 0.0327889 0)
(1.00525 0.0548749 0)
(1.01044 0.0766538 0)
(1.01711 0.0977797 0)
(1.02507 0.117934 0)
(1.03407 0.136838 0)
(1.04384 0.154262 0)
(1.05411 0.170029 0)
(1.0646 0.184016 0)
(1.07506 0.196153 0)
(1.08524 0.206413 0)
(1.09495 0.21481 0)
(1.10401 0.221392 0)
(1.11231 0.226231 0)
(1.11973 0.229417 0)
(1.12622 0.231053 0)
(1.13174 0.231248 0)
(1.13627 0.230115 0)
(1.13983 0.227763 0)
(1.14245 0.2243 0)
(1.14417 0.219828 0)
(1.14505 0.214441 0)
(1.14515 0.208228 0)
(1.14455 0.201272 0)
(1.14331 0.193647 0)
(1.14152 0.185425 0)
(1.13924 0.176675 0)
(1.13656 0.167463 0)
(1.13354 0.157859 0)
(1.13026 0.147938 0)
(1.12677 0.137789 0)
(1.12314 0.127517 0)
(1.11942 0.117254 0)
(1.11566 0.107174 0)
(1.1119 0.0975039 0)
(1.10819 0.0885534 0)
(1.10446 0.0807383 0)
(1.10061 0.0746279 0)
(1.09786 0.0710297 0)
(1.0002 0.00995869 0)
(1.00154 0.0303245 0)
(1.0046 0.050809 0)
(1.00918 0.0710942 0)
(1.0151 0.0908857 0)
(1.02221 0.109907 0)
(1.03032 0.127909 0)
(1.03921 0.14468 0)
(1.04864 0.160048 0)
(1.05837 0.173884 0)
(1.06819 0.1861 0)
(1.07788 0.196648 0)
(1.08726 0.205514 0)
(1.09616 0.212715 0)
(1.10444 0.218291 0)
(1.11201 0.222303 0)
(1.11879 0.224823 0)
(1.12473 0.225935 0)
(1.12979 0.225728 0)
(1.13397 0.224292 0)
(1.13729 0.221717 0)
(1.13977 0.218092 0)
(1.14145 0.213502 0)
(1.14237 0.208026 0)
(1.1426 0.201741 0)
(1.14219 0.19472 0)
(1.1412 0.187032 0)
(1.13971 0.178745 0)
(1.13778 0.169927 0)
(1.13547 0.160651 0)
(1.13284 0.150994 0)
(1.12996 0.141047 0)
(1.12688 0.130923 0)
(1.12365 0.120757 0)
(1.12032 0.11073 0)
(1.11692 0.101079 0)
(1.11351 0.09212 0)
(1.11002 0.0842798 0)
(1.10637 0.0781401 0)
(1.1038 0.0745222 0)
(1.00017 0.00924561 0)
(1.00135 0.0281622 0)
(1.00404 0.0472274 0)
(1.00808 0.0661726 0)
(1.01333 0.0847466 0)
(1.01968 0.10271 0)
(1.02697 0.119841 0)
(1.03502 0.135947 0)
(1.04363 0.150863 0)
(1.05261 0.164461 0)
(1.06175 0.176643 0)
(1.07088 0.187347 0)
(1.07982 0.196537 0)
(1.08841 0.204208 0)
(1.09654 0.210373 0)
(1.10408 0.215068 0)
(1.11097 0.218341 0)
(1.11713 0.220252 0)
(1.12252 0.220868 0)
(1.12713 0.220261 0)
(1.13096 0.218504 0)
(1.13401 0.215673 0)
(1.13631 0.21184 0)
(1.13789 0.207078 0)
(1.1388 0.201455 0)
(1.13908 0.19504 0)
(1.13878 0.1879 0)
(1.13797 0.180099 0)
(1.13669 0.171706 0)
(1.135 0.162795 0)
(1.13297 0.153446 0)
(1.13063 0.143752 0)
(1.12806 0.133828 0)
(1.12528 0.123817 0)
(1.12234 0.113903 0)
(1.11929 0.104329 0)
(1.11616 0.0954188 0)
(1.11291 0.0876058 0)
(1.10946 0.0814797 0)
(1.10708 0.0778686 0)
(1.00015 0.00862121 0)
(1.00118 0.026263 0)
(1.00355 0.0440704 0)
(1.00712 0.0618158 0)
(1.01177 0.0792843 0)
(1.01743 0.0962678 0)
(1.02397 0.112571 0)
(1.03124 0.128019 0)
(1.03907 0.142457 0)
(1.0473 0.15576 0)
(1.05575 0.167826 0)
(1.06427 0.178582 0)
(1.0727 0.187981 0)
(1.0809 0.195996 0)
(1.08874 0.202623 0)
(1.09612 0.207876 0)
(1.10295 0.211782 0)
(1.10917 0.214381 0)
(1.11473 0.21572 0)
(1.1196 0.215854 0)
(1.12376 0.214841 0)
(1.12721 0.212743 0)
(1.12997 0.209621 0)
(1.13206 0.205538 0)
(1.1335 0.200556 0)
(1.13434 0.194737 0)
(1.13461 0.188143 0)
(1.13436 0.180839 0)
(1.13363 0.172891 0)
(1.13249 0.164371 0)
(1.13097 0.155362 0)
(1.12912 0.145959 0)
(1.12699 0.13628 0)
(1.12462 0.12647 0)
(1.12205 0.116718 0)
(1.11932 0.107272 0)
(1.11647 0.0984602 0)
(1.11344 0.0907202 0)
(1.11019 0.0846453 0)
(1.10798 0.0810643 0)
(1.00013 0.00807398 0)
(1.00104 0.0245937 0)
(1.00312 0.0412868 0)
(1.00627 0.0579596 0)
(1.0104 0.0744281 0)
(1.01544 0.0905117 0)
(1.02129 0.106038 0)
(1.02783 0.120848 0)
(1.03492 0.134801 0)
(1.04242 0.147774 0)
(1.05019 0.159667 0)
(1.05808 0.1704 0)
(1.06595 0.179914 0)
(1.07367 0.188173 0)
(1.08114 0.195155 0)
(1.08824 0.200857 0)
(1.0949 0.205289 0)
(1.10105 0.208474 0)
(1.10663 0.210441 0)
(1.1116 0.211231 0)
(1.11595 0.210888 0)
(1.11965 0.209459 0)
(1.12273 0.206995 0)
(1.12517 0.20355 0)
(1.12702 0.199179 0)
(1.12828 0.193936 0)
(1.129 0.187879 0)
(1.12921 0.18107 0)
(1.12894 0.173573 0)
(1.12825 0.16546 0)
(1.12717 0.156813 0)
(1.12574 0.147729 0)
(1.124 0.138327 0)
(1.122 0.128756 0)
(1.11976 0.119207 0)
(1.11732 0.109931 0)
(1.11472 0.101258 0)
(1.11191 0.0936299 0)
(1.10885 0.0876384 0)
(1.10682 0.084107 0)
(1.00011 0.00759415 0)
(1.00091 0.0231257 0)
(1.00274 0.0388318 0)
(1.00552 0.0545474 0)
(1.00918 0.0701147 0)
(1.01367 0.0853768 0)
(1.01889 0.100182 0)
(1.02476 0.114386 0)
(1.03116 0.12786 0)
(1.03796 0.140488 0)
(1.04506 0.15217 0)
(1.0523 0.162824 0)
(1.05959 0.172385 0)
(1.0668 0.180806 0)
(1.07382 0.188055 0)
(1.08057 0.194114 0)
(1.08695 0.198979 0)
(1.09291 0.202659 0)
(1.09839 0.205169 0)
(1.10334 0.206534 0)
(1.10774 0.206786 0)
(1.11157 0.205962 0)
(1.11482 0.204101 0)
(1.11751 0.201248 0)
(1.11963 0.19745 0)
(1.1212 0.192755 0)
(1.12226 0.187218 0)
(1.12282 0.180894 0)
(1.12292 0.173846 0)
(1.1226 0.166145 0)
(1.12188 0.157872 0)
(1.1208 0.149124 0)
(1.1194 0.140023 0)
(1.11771 0.130717 0)
(1.11576 0.121402 0)
(1.11358 0.112328 0)
(1.11121 0.103829 0)
(1.10861 0.0963442 0)
(1.10573 0.0904621 0)
(1.10389 0.0869966 0)
(1.0001 0.00717327 0)
(1.0008 0.0218343 0)
(1.00241 0.0366664 0)
(1.00487 0.051529 0)
(1.00811 0.0662867 0)
(1.01209 0.0808032 0)
(1.01675 0.0949443 0)
(1.022 0.108582 0)
(1.02775 0.121595 0)
(1.0339 0.133876 0)
(1.04034 0.145326 0)
(1.04695 0.155865 0)
(1.05364 0.165422 0)
(1.0603 0.173942 0)
(1.06684 0.181386 0)
(1.07316 0.187726 0)
(1.0792 0.192945 0)
(1.08488 0.197039 0)
(1.09016 0.200013 0)
(1.09499 0.201879 0)
(1.09933 0.202658 0)
(1.10317 0.202374 0)
(1.10649 0.20106 0)
(1.10929 0.19875 0)
(1.11158 0.195484 0)
(1.11336 0.191305 0)
(1.11465 0.186261 0)
(1.11547 0.180405 0)
(1.11585 0.173796 0)
(1.11581 0.166503 0)
(1.11539 0.158607 0)
(1.1146 0.150205 0)
(1.11348 0.141418 0)
(1.11206 0.132397 0)
(1.11036 0.123337 0)
(1.10841 0.114491 0)
(1.10626 0.106191 0)
(1.10384 0.0988737 0)
(1.10114 0.0931214 0)
(1.09947 0.0897342 0)
(1.00009 0.0068039 0)
(1.0007 0.0206974 0)
(1.00213 0.0347555 0)
(1.0043 0.0488589 0)
(1.00717 0.0628917 0)
(1.0107 0.0767354 0)
(1.01485 0.0902713 0)
(1.01953 0.103384 0)
(1.02468 0.115963 0)
(1.03021 0.127906 0)
(1.03602 0.139119 0)
(1.04201 0.149519 0)
(1.04811 0.159036 0)
(1.0542 0.16761 0)
(1.06022 0.175194 0)
(1.06609 0.181751 0)
(1.07172 0.187258 0)
(1.07706 0.191698 0)
(1.08206 0.195066 0)
(1.08668 0.197365 0)
(1.09087 0.198605 0)
(1.09462 0.198802 0)
(1.09791 0.197979 0)
(1.10074 0.196162 0)
(1.10309 0.193385 0)
(1.10498 0.189684 0)
(1.10642 0.185104 0)
(1.10741 0.179691 0)
(1.10799 0.173504 0)
(1.10817 0.166609 0)
(1.10796 0.159085 0)
(1.10741 0.15103 0)
(1.10652 0.142563 0)
(1.10532 0.133837 0)
(1.10383 0.125047 0)
(1.10209 0.116445 0)
(1.10013 0.108362 0)
(1.09788 0.10123 0)
(1.09536 0.095622 0)
(1.09385 0.0923221 0)
(1.00008 0.0064793 0)
(1.00062 0.0196951 0)
(1.00188 0.0330672 0)
(1.0038 0.0464956 0)
(1.00634 0.0598813 0)
(1.00948 0.0731213 0)
(1.01316 0.0861105 0)
(1.01734 0.0987442 0)
(1.02193 0.110921 0)
(1.02688 0.122543 0)
(1.03209 0.133522 0)
(1.03749 0.143775 0)
(1.04299 0.15323 0)
(1.04853 0.161824 0)
(1.05401 0.169506 0)
(1.05938 0.176231 0)
(1.06457 0.181969 0)
(1.06953 0.186696 0)
(1.07419 0.190399 0)
(1.07853 0.19307 0)
(1.0825 0.194712 0)
(1.08609 0.195332 0)
(1.08927 0.194946 0)
(1.09203 0.193573 0)
(1.09437 0.191241 0)
(1.09629 0.187979 0)
(1.09779 0.183828 0)
(1.09889 0.178832 0)
(1.09959 0.173045 0)
(1.09991 0.16653 0)
(1.09987 0.159367 0)
(1.09949 0.151652 0)
(1.09878 0.143504 0)
(1.09777 0.135077 0)
(1.09646 0.126563 0)
(1.0949 0.118215 0)
(1.0931 0.11036 0)
(1.09101 0.103424 0)
(1.08866 0.0979704 0)
(1.0873 0.0947637 0)
(1.00007 0.00619316 0)
(1.00055 0.0188087 0)
(1.00166 0.031572 0)
(1.00337 0.0444005 0)
(1.00563 0.0572105 0)
(1.00841 0.0699123 0)
(1.01169 0.082412 0)
(1.0154 0.0946143 0)
(1.01948 0.106425 0)
(1.02388 0.117752 0)
(1.02853 0.128508 0)
(1.03336 0.138614 0)
(1.0383 0.147996 0)
(1.04328 0.156588 0)
(1.04823 0.164336 0)
(1.05309 0.171191 0)
(1.05782 0.177116 0)
(1.06235 0.182081 0)
(1.06663 0.186065 0)
(1.07064 0.189055 0)
(1.07434 0.191044 0)
(1.0777 0.192036 0)
(1.0807 0.192036 0)
(1.08334 0.191059 0)
(1.0856 0.189126 0)
(1.08748 0.186264 0)
(1.08898 0.182507 0)
(1.09011 0.177895 0)
(1.09087 0.172481 0)
(1.09128 0.166326 0)
(1.09135 0.159508 0)
(1.0911 0.152121 0)
(1.09053 0.144284 0)
(1.08966 0.136151 0)
(1.08851 0.127914 0)
(1.0871 0.119822 0)
(1.08545 0.1122 0)
(1.08351 0.105467 0)
(1.08131 0.100173 0)
(1.08011 0.0970626 0)
(1.00006 0.00593932 0)
(1.00049 0.0180201 0)
(1.00149 0.0302413 0)
(1.00301 0.0425369 0)
(1.00502 0.0548366 0)
(1.0075 0.0670619 0)
(1.01041 0.0791284 0)
(1.0137 0.0909479 0)
(1.01732 0.102432 0)
(1.02122 0.113492 0)
(1.02535 0.124045 0)
(1.02964 0.134011 0)
(1.03403 0.143316 0)
(1.03846 0.151894 0)
(1.04289 0.159687 0)
(1.04725 0.166643 0)
(1.05149 0.172719 0)
(1.05558 0.177881 0)
(1.05946 0.182102 0)
(1.06311 0.185364 0)
(1.06649 0.187654 0)
(1.06958 0.188967 0)
(1.07236 0.189306 0)
(1.07482 0.188679 0)
(1.07694 0.187103 0)
(1.07872 0.1846 0)
(1.08017 0.181199 0)
(1.08128 0.176939 0)
(1.08206 0.171869 0)
(1.08251 0.166048 0)
(1.08264 0.159553 0)
(1.08247 0.152477 0)
(1.08201 0.14494 0)
(1.08126 0.137091 0)
(1.08023 0.129125 0)
(1.07896 0.121288 0)
(1.07744 0.113898 0)
(1.07564 0.107368 0)
(1.07358 0.102236 0)
(1.07253 0.099223 0)
(1.00005 0.00571146 0)
(1.00044 0.0173113 0)
(1.00135 0.0290471 0)
(1.00272 0.0408692 0)
(1.00453 0.0527188 0)
(1.00674 0.0645264 0)
(1.00932 0.0762144 0)
(1.01224 0.0877 0)
(1.01544 0.0988984 0)
(1.01889 0.109725 0)
(1.02253 0.120097 0)
(1.02631 0.129937 0)
(1.03018 0.13917 0)
(1.03409 0.147728 0)
(1.03801 0.155552 0)
(1.04187 0.162587 0)
(1.04563 0.168787 0)
(1.04927 0.174113 0)
(1.05274 0.178534 0)
(1.056 0.182026 0)
(1.05905 0.184573 0)
(1.06184 0.186165 0)
(1.06436 0.186799 0)
(1.0666 0.186479 0)
(1.06855 0.185218 0)
(1.0702 0.183033 0)
(1.07155 0.179952 0)
(1.0726 0.176009 0)
(1.07335 0.171252 0)
(1.07381 0.165738 0)
(1.07397 0.159542 0)
(1.07385 0.152756 0)
(1.07346 0.1455 0)
(1.0728 0.137924 0)
(1.07188 0.130218 0)
(1.07072 0.122627 0)
(1.06933 0.115466 0)
(1.06765 0.109137 0)
(1.06574 0.104166 0)
(1.06482 0.101249 0)
(1.00005 0.00550264 0)
(1.00041 0.0166631 0)
(1.00125 0.027961 0)
(1.0025 0.0393625 0)
(1.00414 0.0508179 0)
(1.00612 0.0622638 0)
(1.00843 0.0736268 0)
(1.01101 0.0848273 0)
(1.01384 0.0957827 0)
(1.01687 0.10641 0)
(1.02006 0.116628 0)
(1.02337 0.126359 0)
(1.02676 0.135528 0)
(1.03018 0.144067 0)
(1.0336 0.151915 0)
(1.03698 0.159014 0)
(1.04029 0.165316 0)
(1.04348 0.170779 0)
(1.04653 0.175368 0)
(1.04942 0.179056 0)
(1.05211 0.181822 0)
(1.05458 0.183653 0)
(1.05683 0.184542 0)
(1.05883 0.184489 0)
(1.06058 0.183503 0)
(1.06208 0.181598 0)
(1.0633 0.1788 0)
(1.06426 0.17514 0)
(1.06495 0.170664 0)
(1.06538 0.165427 0)
(1.06555 0.159504 0)