/*--------------------------------*- C++ -*----------------------------------*\
| =========                 |                                                 |
| \\      /  F ield         | OpenFOAM: The Open Source CFD Toolbox           |
|  \\    /   O peration     | Version:  v2012                                 |
|   \\  /    A nd           | Website:  www.openfoam.com                      |
|    \\/     M anipulation  |                                                 |
\*---------------------------------------------------------------------------*/
FoamFile
{
    version     2.0;
    format      ascii;
    class       volScalarField;
    location    "0.5";
    object      p;
}
// * * * * * * * * * * * * * * * * * * * * * * * * * * * * * * * * * * * * * //

dimensions      [0 2 -2 0 0 0 0];


internalField   nonuniform List<scalar> 
1600
(
-0.776386
-0.935828
-2.10084
-2.4073
-3.40785
-3.55434
-4.02684
-4.09306
-4.33572
-4.37278
-4.51971
-4.54292
-4.6389
-4.65438
-4.72114
-4.73225
-4.78184
-4.79035
-4.82918
-4.836
-4.86763
-4.8733
-4.89987
-4.90472
-4.92767
-4.93192
-4.95225
-4.95608
-4.97456
-4.97809
-4.99533
-4.99868
-5.01516
-5.01843
-5.03466
-5.03791
-5.05336
-5.05611
-5.06583
-5.06679
-0.892663
-1.02738
-2.16463
-2.44711
-3.42226
-3.55728
-4.02391
-4.08496
-4.32938
-4.36355
-4.51346
-4.53486
-4.63351
-4.64777
-4.71669
-4.72693
-4.77821
-4.78605
-4.82621
-4.8325
-4.86519
-4.87041
-4.89785
-4.90232
-4.92598
-4.9299
-4.95085
-4.95437
-4.97339
-4.97665
-4.99436
-4.99744
-5.01435
-5.01736
-5.03398
-5.03698
-5.05293
-5.05546
-5.06563
-5.06647
-1.81157
-1.89798
-2.77769
-2.8911
-3.53401
-3.60843
-3.9742
-4.02016
-4.25007
-4.28131
-4.438
-4.45986
-4.56949
-4.58505
-4.66439
-4.67587
-4.73578
-4.74459
-4.79159
-4.79859
-4.83668
-4.84242
-4.87419
-4.87902
-4.90622
-4.91041
-4.93428
-4.93799
-4.95948
-4.96285
-4.98264
-4.98577
-5.00443
-5.00742
-5.02569
-5.02867
-5.0465
-5.04911
-5.06111
-5.06224
-2.07493
-2.14074
-2.84765
-2.96106
-3.54291
-3.61733
-3.967
-4.01296
-4.23913
-4.27038
-4.42707
-4.44894
-4.55985
-4.57541
-4.65625
-4.66772
-4.72898
-4.73779
-4.78591
-4.79292
-4.83192
-4.83766
-4.87018
-4.87501
-4.90283
-4.90702
-4.93141
-4.93512
-4.95704
-4.96041
-4.98056
-4.98369
-5.00266
-5.00565
-5.02419
-5.02718
-5.04535
-5.04796
-5.06019
-5.06124
-2.96916
-3.00316
-3.33823
-3.38235
-3.70444
-3.74701
-3.99718
-4.03148
-4.22205
-4.24863
-4.39285
-4.41311
-4.52172
-4.53715
-4.61995
-4.63188
-4.69644
-4.70586
-4.75743
-4.76505
-4.80723
-4.81353
-4.84885
-4.85417
-4.88442
-4.88903
-4.91552
-4.9196
-4.94333
-4.94702
-4.96874
-4.97215
-4.99248
-4.99573
-5.01563
-5.01891
-5.0387
-5.04163
-5.05518
-5.05642
-3.11546
-3.13802
-3.39661
-3.44073
-3.72781
-3.77037
-4.00577
-4.04007
-4.22348
-4.25005
-4.39076
-4.41102
-4.51822
-4.53365
-4.61608
-4.62801
-4.69266
-4.70208
-4.75393
-4.76154
-4.80406
-4.81036
-4.84602
-4.85134
-4.88191
-4.88652
-4.9133
-4.91738
-4.94138
-4.94507
-4.96702
-4.97043
-4.99098
-4.99422
-5.01434
-5.01762
-5.0377
-5.04063
-5.05433
-5.0555
-3.60861
-3.62029
-3.72752
-3.7447
-3.90319
-3.92783
-4.09207
-4.11609
-4.25988
-4.28044
-4.39904
-4.41598
-4.51184
-4.52561
-4.60289
-4.61409
-4.67683
-4.68601
-4.73759
-4.74521
-4.78827
-4.79468
-4.83123
-4.83673
-4.86831
-4.87311
-4.90092
-4.90518
-4.93016
-4.93403
-4.95691
-4.96049
-4.98193
-4.98535
-5.00644
-5.00993
-5.03118
-5.03433
-5.04896
-5.05027
-3.68565
-3.69131
-3.76976
-3.78694
-3.92798
-3.95262
-4.1058
-4.12983
-4.26662
-4.28718
-4.40154
-4.41848
-4.51196
-4.52573
-4.60176
-4.61296
-4.67508
-4.68426
-4.73559
-4.7432
-4.7862
-4.79262
-4.82921
-4.8347
-4.86638
-4.87118
-4.89911
-4.90337
-4.92848
-4.93235
-4.95535
-4.95893
-4.9805
-4.98392
-5.00514
-5.00864
-5.03007
-5.03322
-5.04786
-5.04908
-3.96666
-3.97028
-3.99654
-4.00249
-4.08039
-4.09445
-4.1993
-4.21555
-4.31905
-4.33439
-4.42718
-4.44081
-4.52111
-4.5329
-4.60123
-4.61129
-4.6691
-4.67765
-4.7267
-4.73399
-4.77592
-4.7822
-4.81842
-4.82389
-4.8556
-4.86042
-4.88859
-4.89292
-4.91837
-4.92232
-4.94572
-4.94938
-4.97139
-4.97491
-4.99665
-5.00026
-5.02228
-5.02553
-5.04066
-5.04202
-4.01224
-4.01229
-4.02694
-4.0329
-4.10171
-4.11577
-4.21298
-4.22922
-4.32719
-4.34253
-4.43155
-4.44519
-4.52305
-4.53484
-4.60165
-4.61171
-4.6686
-4.67715
-4.72566
-4.73295
-4.77457
-4.78085
-4.81692
-4.82239
-4.85403
-4.85885
-4.88701
-4.89133
-4.9168
-4.92075
-4.94418
-4.94784
-4.9699
-4.97341
-4.9952
-4.99881
-5.0209
-5.02415
-5.03911
-5.04034
-4.18804
-4.1887
-4.18654
-4.18778
-4.22468
-4.23259
-4.29839
-4.30923
-4.38227
-4.39353
-4.46452
-4.47526
-4.54071
-4.55053
-4.60909
-4.61785
-4.66939
-4.6771
-4.72221
-4.72898
-4.76849
-4.77444
-4.80923
-4.8145
-4.84539
-4.85011
-4.87785
-4.88211
-4.90736
-4.91128
-4.93462
-4.93826
-4.96029
-4.9638
-4.98561
-4.98922
-5.01128
-5.01451
-5.02948
-5.03084
-4.21716
-4.21554
-4.20851
-4.20976
-4.24201
-4.24992
-4.31077
-4.32161
-4.3906
-4.40185
-4.46977
-4.48051
-4.54374
-4.55356
-4.61057
-4.61933
-4.66981
-4.67753
-4.72193
-4.7287
-4.76773
-4.77369
-4.80817
-4.81344
-4.84413
-4.84884
-4.87645
-4.88071
-4.90587
-4.90979
-4.93306
-4.93671
-4.95868
-4.96219
-4.98396
-4.98757
-5.00958
-5.0128
-5.02742
-5.02861
-4.33421
-4.33387
-4.32325
-4.32274
-4.33928
-4.34375
-4.38506
-4.3923
-4.44357
-4.45177
-4.50543
-4.51378
-4.56616
-4.57418
-4.62324
-4.63069
-4.6755
-4.68228
-4.72268
-4.7288
-4.76504
-4.77054
-4.80306
-4.80802
-4.83732
-4.84181
-4.86841
-4.87251
-4.89692
-4.90071
-4.92339
-4.92693
-4.94839
-4.9518
-4.97307
-4.97657
-4.99795
-5.00103
-5.01522
-5.01651
-4.35398
-4.35208
-4.33938
-4.33887
-4.35315
-4.35762
-4.39585
-4.40309
-4.45149
-4.45969
-4.51095
-4.51929
-4.56977
-4.57779
-4.6254
-4.63285
-4.67658
-4.68337
-4.72298
-4.7291
-4.76477
-4.77027
-4.80237
-4.80732
-4.83632
-4.8408
-4.86717
-4.87127
-4.89549
-4.89928
-4.9218
-4.92534
-4.94666
-4.95007
-4.9712
-4.97471
-4.99592
-4.99899
-5.01266
-5.01373
-4.43661
-4.43602
-4.42442
-4.42338
-4.43018
-4.43275
-4.459
-4.46389
-4.49999
-4.50597
-4.54633
-4.55276
-4.5942
-4.60067
-4.6411
-4.64734
-4.68554
-4.69139
-4.7268
-4.73221
-4.7647
-4.76967
-4.79935
-4.80389
-4.83102
-4.83518
-4.86007
-4.86391
-4.88692
-4.89049
-4.91196
-4.91531
-4.93566
-4.93889
-4.95903
-4.96233
-4.98236
-4.98518
-4.99802
-4.99919
-4.45091
-4.4492
-4.4366
-4.43556
-4.44129
-4.44385
-4.46821
-4.4731
-4.5072
-4.51318
-4.55171
-4.55815
-4.59802
-4.60449
-4.64364
-4.64988
-4.68706
-4.69291
-4.72752
-4.73293
-4.7648
-4.76976
-4.79895
-4.80349
-4.83023
-4.83439
-4.85897
-4.86281
-4.88555
-4.88911
-4.91035
-4.9137
-4.93382
-4.93705
-4.95697
-4.96027
-4.98003
-4.98285
-4.995
-4.99593
-4.51262
-4.51205
-4.50181
-4.50072
-4.50296
-4.50446
-4.52146
-4.52481
-4.55045
-4.55483
-4.58519
-4.59014
-4.62271
-4.62789
-4.66084
-4.66599
-4.69807
-4.70303
-4.73351
-4.73821
-4.76674
-4.77113
-4.79763
-4.8017
-4.82623
-4.83
-4.85273
-4.85623
-4.87737
-4.88064
-4.90043
-4.90351
-4.92227
-4.92523
-4.94373
-4.94674
-4.96485
-4.96732
-4.97832
-4.97934
-4.52355
-4.52213
-4.51129
-4.5102
-4.51195
-4.51345
-4.52928
-4.53262
-4.55688
-4.56127
-4.59026
-4.59521
-4.62653
-4.6317
-4.66356
-4.66871
-4.69985
-4.70482
-4.73453
-4.73922
-4.76712
-4.77151
-4.79748
-4.80155
-4.82563
-4.82941
-4.85175
-4.85526
-4.87606
-4.87933
-4.89881
-4.90189
-4.92035
-4.92332
-4.94152
-4.94453
-4.96229
-4.96476
-4.97496
-4.9757
-4.57181
-4.57134
-4.56292
-4.56193
-4.5621
-4.563
-4.57426
-4.57659
-4.59502
-4.59825
-4.62117
-4.62498
-4.65051
-4.65462
-4.68125
-4.68546
-4.71205
-4.71621
-4.74202
-4.74602
-4.77061
-4.77441
-4.79757
-4.80114
-4.8228
-4.82614
-4.84636
-4.84948
-4.86838
-4.8713
-4.88901
-4.89176
-4.90852
-4.91116
-4.9276
-4.93025
-4.94599
-4.94804
-4.95684
-4.95766
-4.58053
-4.57938
-4.57052
-4.56953
-4.56948
-4.57038
-4.5809
-4.58324
-4.60071
-4.60395
-4.62584
-4.62965
-4.65419
-4.65831
-4.68401
-4.68823
-4.714
-4.71815
-4.74324
-4.74725
-4.77122
-4.77501
-4.79763
-4.8012
-4.82239
-4.82573
-4.84553
-4.84865
-4.86716
-4.87008
-4.88743
-4.89017
-4.90658
-4.90922
-4.9253
-4.92795
-4.94328
-4.94533
-4.95326
-4.95378
-4.61967
-4.6193
-4.61255
-4.61171
-4.611
-4.61154
-4.61918
-4.62084
-4.63425
-4.63667
-4.65405
-4.65699
-4.67696
-4.68022
-4.70159
-4.705
-4.72679
-4.73022
-4.75174
-4.7551
-4.7759
-4.77912
-4.79892
-4.80198
-4.82064
-4.82352
-4.84103
-4.84373
-4.86012
-4.86264
-4.87799
-4.88036
-4.8948
-4.89706
-4.91113
-4.91337
-4.92643
-4.92801
-4.93437
-4.93497
-4.62686
-4.62593
-4.6188
-4.61796
-4.61716
-4.61771
-4.62487
-4.62653
-4.63928
-4.6417
-4.65832
-4.66126
-4.68045
-4.68372
-4.70432
-4.70773
-4.72881
-4.73224
-4.75311
-4.75647
-4.77667
-4.7799
-4.79916
-4.80222
-4.8204
-4.82328
-4.84034
-4.84304
-4.85901
-4.86154
-4.87648
-4.87885
-4.8929
-4.89516
-4.90883
-4.91107
-4.92367
-4.92526
-4.9307
-4.93099
-4.65953
-4.65925
-4.65388
-4.65318
-4.65215
-4.65249
-4.65778
-4.65898
-4.66888
-4.67069
-4.68395
-4.68622
-4.70183
-4.7044
-4.72143
-4.72417
-4.74182
-4.74462
-4.76228
-4.76504
-4.78228
-4.78495
-4.80147
-4.80403
-4.81967
-4.82208
-4.83677
-4.83903
-4.85276
-4.85486
-4.86764
-4.86959
-4.88152
-4.88337
-4.89485
-4.89665
-4.90683
-4.90793
-4.91172
-4.91209
-4.66562
-4.66486
-4.65914
-4.65844
-4.65739
-4.65773
-4.66272
-4.66392
-4.67334
-4.67516
-4.68784
-4.69011
-4.70511
-4.70768
-4.72409
-4.72683
-4.74387
-4.74666
-4.76374
-4.7665
-4.78319
-4.78586
-4.80188
-4.80443
-4.81959
-4.822
-4.83624
-4.83849
-4.85178
-4.85388
-4.86624
-4.8682
-4.87971
-4.88155
-4.89261
-4.89441
-4.90411
-4.90521
-4.90809
-4.90815
-4.69355
-4.69334
-4.68906
-4.68848
-4.68739
-4.6876
-4.69135
-4.69224
-4.69962
-4.701
-4.71114
-4.7129
-4.72508
-4.7271
-4.74057
-4.74274
-4.75686
-4.7591
-4.77333
-4.77555
-4.78951
-4.79167
-4.80508
-4.80714
-4.81982
-4.82175
-4.83362
-4.83542
-4.84642
-4.84808
-4.8582
-4.85972
-4.86902
-4.87044
-4.87922
-4.88056
-4.88778
-4.88839
-4.88961
-4.88973
-4.69882
-4.6982
-4.69359
-4.69301
-4.69192
-4.69213
-4.69568
-4.69656
-4.70361
-4.70499
-4.7147
-4.71646
-4.72815
-4.73017
-4.74313
-4.74531
-4.7589
-4.76114
-4.77485
-4.77708
-4.79053
-4.79269
-4.80561
-4.80767
-4.81989
-4.82182
-4.83323
-4.83504
-4.84559
-4.84726
-4.85694
-4.85846
-4.86733
-4.86875
-4.8771
-4.87844
-4.88518
-4.88579
-4.88612
-4.88595
-4.72321
-4.72305
-4.71961
-4.71914
-4.71809
-4.71822
-4.72093
-4.72159
-4.72717
-4.72822
-4.73601
-4.73737
-4.74684
-4.74841
-4.75896
-4.76067
-4.77177
-4.77352
-4.78473
-4.78647
-4.79744
-4.79912
-4.8096
-4.81119
-4.82101
-4.8225
-4.83156
-4.83292
-4.84119
-4.84241
-4.84984
-4.85093
-4.85755
-4.85853
-4.86459
-4.86547
-4.86976
-4.86989
-4.8686
-4.86849
-4.72786
-4.72734
-4.72358
-4.7231
-4.72207
-4.7222
-4.72478
-4.72543
-4.73076
-4.73181
-4.73929
-4.74065
-4.74973
-4.7513
-4.76143
-4.76314
-4.77379
-4.77555
-4.7863
-4.78804
-4.79855
-4.80024
-4.81026
-4.81186
-4.82123
-4.82271
-4.83134
-4.83269
-4.84052
-4.84175
-4.84874
-4.84983
-4.85602
-4.85701
-4.86263
-4.86351
-4.86733
-4.86746
-4.86533
-4.86495
-4.74952
-4.74941
-4.74661
-4.74621
-4.74525
-4.74534
-4.74735
-4.74785
-4.75212
-4.75293
-4.75895
-4.76
-4.76732
-4.76853
-4.77668
-4.77799
-4.78652
-4.78786
-4.7964
-4.79771
-4.80596
-4.80721
-4.81496
-4.81611
-4.82321
-4.82425
-4.83061
-4.83153
-4.8371
-4.8379
-4.84265
-4.84331
-4.84728
-4.84784
-4.8512
-4.85163
-4.85307
-4.85275
-4.84908
-4.84875
-4.75369
-4.75325
-4.75014
-4.74974
-4.7488
-4.74889
-4.75081
-4.75131
-4.75541
-4.75622
-4.76199
-4.76304
-4.77006
-4.77127
-4.77907
-4.78038
-4.78854
-4.78988
-4.79801
-4.79933
-4.80716
-4.80841
-4.81573
-4.81689
-4.82356
-4.82461
-4.83053
-4.83146
-4.8366
-4.83739
-4.84172
-4.84238
-4.84592
-4.84648
-4.84942
-4.84986
-4.85084
-4.85051
-4.84608
-4.84549
-4.77321
-4.77312
-4.77079
-4.77045
-4.76962
-4.76968
-4.77125
-4.77165
-4.775
-4.77563
-4.78032
-4.78113
-4.78676
-4.78769
-4.79386
-4.79484
-4.80118
-4.80215
-4.80833
-4.80927
-4.81505
-4.8159
-4.8211
-4.82184
-4.82635
-4.82698
-4.83071
-4.83122
-4.83416
-4.83454
-4.83667
-4.83691
-4.83828
-4.83842
-4.83918
-4.83918
-4.8379
-4.83715
-4.83128
-4.83073
-4.77699
-4.77661
-4.77396
-4.77363
-4.77281
-4.77288
-4.7744
-4.77479
-4.77803
-4.77866
-4.78317
-4.78398
-4.78938
-4.79031
-4.7962
-4.79718
-4.80319
-4.80416
-4.80999
-4.81092
-4.81632
-4.81718
-4.82198
-4.82273
-4.82683
-4.82746
-4.83078
-4.83128
-4.83382
-4.83419
-4.83591
-4.83615
-4.83711
-4.83725
-4.83759
-4.8376
-4.83589
-4.83513
-4.82856
-4.82779
-4.79474
-4.79467
-4.79266
-4.79237
-4.7917
-4.79176
-4.79313
-4.79347
-4.79625
-4.79676
-4.80049
-4.80112
-4.80545
-4.80614
-4.8107
-4.8114
-4.81585
-4.81652
-4.82061
-4.82119
-4.82472
-4.8252
-4.82802
-4.82838
-4.83042
-4.83065
-4.83187
-4.83196
-4.83236
-4.83233
-4.83191
-4.83174
-4.83058
-4.83032
-4.82856
-4.82816
-4.82432
-4.82317
-4.81526
-4.81452
-4.7982
-4.79786
-4.79555
-4.79525
-4.79462
-4.79468
-4.79606
-4.79639
-4.79911
-4.79962
-4.80323
-4.80386
-4.80801
-4.80871
-4.81303
-4.81373
-4.8179
-4.81857
-4.82234
-4.82293
-4.8261
-4.82659
-4.82904
-4.8294
-4.83105
-4.83127
-4.83209
-4.83219
-4.83218
-4.83214
-4.83131
-4.83115
-4.82959
-4.82932
-4.82717
-4.82677
-4.82252
-4.82137
-4.81283
-4.81188
-4.81444
-4.81439
-4.81273
-4.8125
-4.81219
-4.81229
-4.81379
-4.81412
-4.81668
-4.81714
-4.82027
-4.82078
-4.82412
-4.82464
-4.82786
-4.82833
-4.83115
-4.83153
-4.83372
-4.83398
-4.83538
-4.83551
-4.83604
-4.83603
-4.83565
-4.83549
-4.8342
-4.8339
-4.83175
-4.83131
-4.82833
-4.82776
-4.82409
-4.82343
-4.81921
-4.81841
-4.81212
-4.8106
-4.80083
-4.7999
-4.8176
-4.8173
-4.81541
-4.81517
-4.81497
-4.81507
-4.81665
-4.81698
-4.81955
-4.82
-4.82307
-4.82358
-4.8268
-4.82732
-4.83035
-4.83081
-4.83338
-4.83376
-4.83565
-4.83591
-4.83697
-4.8371
-4.83726
-4.83725
-4.83647
-4.8363
-4.8346
-4.8343
-4.83172
-4.83128
-4.82788
-4.82732
-4.82322
-4.82257
-4.81794
-4.81714
-4.81045
-4.80893
-4.7986
-4.79748
-4.83183
-4.83188
-4.831
-4.83092
-4.8315
-4.83174
-4.83388
-4.83429
-4.83708
-4.83755
-4.84045
-4.8409
-4.84357
-4.84394
-4.84606
-4.84632
-4.84765
-4.84776
-4.84813
-4.84807
-4.84738
-4.84715
-4.84536
-4.84495
-4.84209
-4.84151
-4.83763
-4.83689
-4.83209
-4.8312
-4.82558
-4.82457
-4.81831
-4.81723
-4.8105
-4.80929
-4.80063
-4.79877
-4.78767
-4.78663
-4.83432
-4.83417
-4.83322
-4.83314
-4.83393
-4.83417
-4.83646
-4.83687
-4.83973
-4.84019
-4.8431
-4.84354
-4.84612
-4.8465
-4.84846
-4.84872
-4.84983
-4.84994
-4.85003
-4.84997
-4.84896
-4.84873
-4.84658
-4.84617
-4.84292
-4.84234
-4.83806
-4.83731
-4.8321
-4.83121
-4.82517
-4.82417
-4.8175
-4.81642
-4.8093
-4.80809
-4.79905
-4.79719
-4.78577
-4.78456
-4.84301
-4.84326
-4.84343
-4.84362
-4.84525
-4.84576
-4.84865
-4.84927
-4.85242
-4.85301
-4.85587
-4.85634
-4.85858
-4.85889
-4.86023
-4.86033
-4.86057
-4.86044
-4.85945
-4.85907
-4.85681
-4.85619
-4.85267
-4.85181
-4.8471
-4.84602
-4.84022
-4.83895
-4.8322
-4.83077
-4.82323
-4.82166
-4.81356
-4.81192
-4.80339
-4.80162
-4.79155
-4.78928
-4.77855
-4.77752
-4.84395
-4.84413
-4.84437
-4.84456
-4.84627
-4.84682
-4.84973
-4.8504
-4.85354
-4.85418
-4.857
-4.85751
-4.85968
-4.86001
-4.86127
-4.86138
-4.86152
-4.86138
-4.86029
-4.85988
-4.85751
-4.85684
-4.85322
-4.85228
-4.84748
-4.84631
-4.84043
-4.83905
-4.83223
-4.83067
-4.82307
-4.82138
-4.81323
-4.81146
-4.80288
-4.80096
-4.79083
-4.78838
-4.77815
-4.77697
)
;

boundaryField
{
    movingWall
    {
        type            zeroGradient;
    }
    bottomWall
    {
        type            zeroGradient;
    }
    leftSide
    {
        type            zeroGradient;
    }
    rightSide
    {
        type            zeroGradient;
    }
    frontAndBack
    {
        type            empty;
    }
}


// ************************************************************************* //
