/*--------------------------------*- C++ -*----------------------------------*\
| =========                 |                                                 |
| \\      /  F ield         | OpenFOAM: The Open Source CFD Toolbox           |
|  \\    /   O peration     | Version:  v2012                                 |
|   \\  /    A nd           | Website:  www.openfoam.com                      |
|    \\/     M anipulation  |                                                 |
\*---------------------------------------------------------------------------*/
FoamFile
{
    version     2.0;
    format      ascii;
    class       volVectorField;
    location    "0.5";
    object      U;
}
// * * * * * * * * * * * * * * * * * * * * * * * * * * * * * * * * * * * * * //

dimensions      [0 1 -1 0 0 0 0];


internalField   nonuniform List<vector> 
1600
(
(0.755268 0.152378 0)
(0.742103 0.149712 0)
(0.674823 0.142755 0)
(0.652366 0.138052 0)
(0.540344 0.102334 0)
(0.516498 0.0954428 0)
(0.41707 0.0633603 0)
(0.400695 0.0590141 0)
(0.333189 0.0389873 0)
(0.32316 0.0365686 0)
(0.278271 0.0248206 0)
(0.271706 0.0234959 0)
(0.240026 0.0166163 0)
(0.235419 0.0158805 0)
(0.21202 0.0117465 0)
(0.208636 0.0113207 0)
(0.19077 0.00871665 0)
(0.18819 0.00845469 0)
(0.174157 0.00671828 0)
(0.172128 0.00654572 0)
(0.160858 0.00532034 0)
(0.159228 0.00519901 0)
(0.150035 0.00428884 0)
(0.148707 0.00419852 0)
(0.141138 0.00349209 0)
(0.140046 0.00342162 0)
(0.133785 0.0028541 0)
(0.132886 0.00279734 0)
(0.127705 0.00233274 0)
(0.126965 0.00228681 0)
(0.122683 0.00191138 0)
(0.122075 0.00187648 0)
(0.118527 0.00160093 0)
(0.118017 0.0015817 0)
(0.114948 0.00144711 0)
(0.114472 0.00145216 0)
(0.111539 0.00149017 0)
(0.111065 0.00151511 0)
(0.112453 0.00170763 0)
(0.115121 0.00179349 0)
(0.778876 0.162164 0)
(0.764774 0.158859 0)
(0.700101 0.154141 0)
(0.679401 0.149805 0)
(0.568041 0.111165 0)
(0.54606 0.104813 0)
(0.44472 0.070033 0)
(0.429627 0.0660267 0)
(0.359248 0.0439272 0)
(0.350004 0.0416978 0)
(0.30214 0.0284698 0)
(0.296089 0.0272486 0)
(0.261747 0.0193527 0)
(0.2575 0.0186744 0)
(0.231855 0.0138443 0)
(0.228737 0.0134518 0)
(0.209007 0.0103615 0)
(0.206629 0.01012 0)
(0.191051 0.00803336 0)
(0.189181 0.0078743 0)
(0.176626 0.00638814 0)
(0.175123 0.0062763 0)
(0.164857 0.00516538 0)
(0.163632 0.00508212 0)
(0.155161 0.00421623 0)
(0.154155 0.00415127 0)
(0.147136 0.00345365 0)
(0.146307 0.00340133 0)
(0.140489 0.00282877 0)
(0.139806 0.00278644 0)
(0.134992 0.00232164 0)
(0.134431 0.00228946 0)
(0.130439 0.00194304 0)
(0.129969 0.00192532 0)
(0.126533 0.00174269 0)
(0.126094 0.00174735 0)
(0.12283 0.00176724 0)
(0.122393 0.00179022 0)
(0.12477 0.00201767 0)
(0.128389 0.00212562 0)
(0.93982 0.223238 0)
(0.944372 0.228328 0)
(0.925742 0.246248 0)
(0.918773 0.243717 0)
(0.838432 0.20469 0)
(0.822659 0.195005 0)
(0.727901 0.147275 0)
(0.712081 0.139431 0)
(0.631332 0.103558 0)
(0.618352 0.0982035 0)
(0.553932 0.0736503 0)
(0.543625 0.0701447 0)
(0.492379 0.0537396 0)
(0.484208 0.0514572 0)
(0.443288 0.0404332 0)
(0.436782 0.0389174 0)
(0.403844 0.0313168 0)
(0.398609 0.0302739 0)
(0.371794 0.0248466 0)
(0.367531 0.0240993 0)
(0.345458 0.0200772 0)
(0.341947 0.0195198 0)
(0.323619 0.0164306 0)
(0.320704 0.015999 0)
(0.305398 0.0135476 0)
(0.302967 0.0132025 0)
(0.290154 0.0112041 0)
(0.288124 0.0109214 0)
(0.277402 0.00926567 0)
(0.275708 0.00903243 0)
(0.266761 0.00766785 0)
(0.265351 0.0074806 0)
(0.257898 0.00641396 0)
(0.256719 0.00628008 0)
(0.250383 0.00557862 0)
(0.249347 0.00551326 0)
(0.243643 0.00523049 0)
(0.242725 0.00522627 0)
(0.236928 0.00521657 0)
(0.235319 0.00523218 0)
(0.965443 0.22915 0)
(0.967991 0.233778 0)
(0.957205 0.259177 0)
(0.950235 0.256646 0)
(0.879631 0.219739 0)
(0.863858 0.210054 0)
(0.773047 0.161148 0)
(0.757227 0.153304 0)
(0.676113 0.115202 0)
(0.663132 0.109848 0)
(0.596565 0.0830557 0)
(0.586257 0.07955 0)
(0.532343 0.0612574 0)
(0.524172 0.0589751 0)
(0.480583 0.0464636 0)
(0.474077 0.0449478 0)
(0.438677 0.0361993 0)
(0.433443 0.0351564 0)
(0.404439 0.0288419 0)
(0.400176 0.0280946 0)
(0.376189 0.0233778 0)
(0.372677 0.0228204 0)
(0.352689 0.0191767 0)
(0.349774 0.0187452 0)
(0.333035 0.0158418 0)
(0.330604 0.0154967 0)
(0.316558 0.0131226 0)
(0.314527 0.01284 0)
(0.302749 0.0108676 0)
(0.301055 0.0106343 0)
(0.291209 0.0090027 0)
(0.2898 0.00881546 0)
(0.28159 0.00752897 0)
(0.280412 0.00739509 0)
(0.273447 0.006525 0)
(0.272411 0.00645964 0)
(0.266175 0.00606567 0)
(0.265257 0.00606145 0)
(0.261888 0.00609532 0)
(0.262397 0.0061855 0)
(1.02627 0.219768 0)
(1.0301 0.226961 0)
(1.05005 0.281307 0)
(1.05194 0.287678 0)
(1.02717 0.278845 0)
(1.02136 0.274157 0)
(0.964616 0.235558 0)
(0.954814 0.228601 0)
(0.889147 0.188535 0)
(0.878436 0.18209 0)
(0.814672 0.148277 0)
(0.804489 0.143068 0)
(0.746796 0.116698 0)
(0.737693 0.112722 0)
(0.687314 0.0927604 0)
(0.679418 0.089777 0)
(0.636156 0.0747028 0)
(0.629397 0.0724536 0)
(0.592471 0.0609342 0)
(0.586711 0.0592112 0)
(0.55523 0.0502407 0)
(0.550323 0.0488924 0)
(0.523475 0.0417508 0)
(0.519295 0.0406706 0)
(0.496397 0.0348548 0)
(0.492837 0.0339696 0)
(0.473335 0.0291362 0)
(0.470311 0.0283975 0)
(0.453753 0.0243262 0)
(0.451194 0.023705 0)
(0.437212 0.0202792 0)
(0.43506 0.0197638 0)
(0.423333 0.0169668 0)
(0.421532 0.0165626 0)
(0.41163 0.0144727 0)
(0.41008 0.014197 0)
(0.401434 0.0129067 0)
(0.400115 0.01276 0)
(0.392408 0.0121675 0)
(0.39067 0.0120999 0)
(1.02858 0.210314 0)
(1.03223 0.218245 0)
(1.0553 0.280427 0)
(1.0572 0.286798 0)
(1.0413 0.285342 0)
(1.03549 0.280654 0)
(0.986438 0.245548 0)
(0.976635 0.238591 0)
(0.915496 0.199302 0)
(0.904785 0.192857 0)
(0.843177 0.158465 0)
(0.832995 0.153256 0)
(0.77598 0.125779 0)
(0.766876 0.121803 0)
(0.716305 0.10063 0)
(0.708409 0.0976468 0)
(0.664483 0.081441 0)
(0.657724 0.0791918 0)
(0.619912 0.0666799 0)
(0.614151 0.0649569 0)
(0.581707 0.0551369 0)
(0.5768 0.0537885 0)
(0.548993 0.0459236 0)
(0.544812 0.0448435 0)
(0.521002 0.0384091 0)
(0.517442 0.0375239 0)
(0.497096 0.0321569 0)
(0.494072 0.0314182 0)
(0.476751 0.0268827 0)
(0.474191 0.0262615 0)
(0.459533 0.0224311 0)
(0.457381 0.0219157 0)
(0.445068 0.0187695 0)
(0.443267 0.0183653 0)
(0.432875 0.0159824 0)
(0.431325 0.0157067 0)
(0.422274 0.0141861 0)
(0.420955 0.0140394 0)
(0.415578 0.0134505 0)
(0.415805 0.0134918 0)
(1.02941 0.167078 0)
(1.03288 0.175568 0)
(1.06539 0.255904 0)
(1.07066 0.267599 0)
(1.08418 0.295924 0)
(1.08497 0.297109 0)
(1.06919 0.283731 0)
(1.06559 0.280157 0)
(1.03003 0.2511 0)
(1.02373 0.245944 0)
(0.978588 0.213927 0)
(0.971114 0.208735 0)
(0.92329 0.179309 0)
(0.915604 0.174709 0)
(0.869085 0.149629 0)
(0.861722 0.14577 0)
(0.818495 0.125054 0)
(0.811711 0.121887 0)
(0.772564 0.104931 0)
(0.766452 0.102342 0)
(0.731531 0.0884234 0)
(0.726097 0.0862933 0)
(0.695244 0.0747536 0)
(0.690456 0.0729802 0)
(0.663391 0.0632823 0)
(0.659202 0.0617849 0)
(0.635616 0.053521 0)
(0.631978 0.0522406 0)
(0.61157 0.0451271 0)
(0.608435 0.0440251 0)
(0.590936 0.0379001 0)
(0.588265 0.036959 0)
(0.573429 0.0317863 0)
(0.571176 0.0310102 0)
(0.558621 0.026881 0)
(0.55669 0.0262923 0)
(0.545851 0.0233761 0)
(0.544233 0.0229999 0)
(0.535167 0.0214256 0)
(0.533367 0.0212514 0)
(1.02823 0.158314 0)
(1.03179 0.16749 0)
(1.06408 0.250109 0)
(1.06935 0.261804 0)
(1.08701 0.295538 0)
(1.08781 0.296723 0)
(1.0776 0.287672 0)
(1.074 0.284098 0)
(1.04331 0.257569 0)
(1.03701 0.252413 0)
(0.995477 0.221498 0)
(0.988003 0.216306 0)
(0.942586 0.187053 0)
(0.9349 0.182453 0)
(0.889819 0.157027 0)
(0.882455 0.153168 0)
(0.839963 0.13186 0)
(0.833179 0.128693 0)
(0.794286 0.11106 0)
(0.788174 0.10847 0)
(0.753198 0.0938696 0)
(0.747764 0.0917394 0)
(0.716666 0.0795512 0)
(0.711879 0.0777778 0)
(0.68446 0.0674786 0)
(0.680271 0.0659813 0)
(0.656277 0.0571658 0)
(0.65264 0.0558853 0)
(0.631807 0.0482673 0)
(0.628673 0.0471653 0)
(0.61076 0.0405798 0)
(0.608088 0.0396387 0)
(0.592869 0.0340486 0)
(0.590616 0.0332725 0)
(0.577724 0.0287724 0)
(0.575793 0.0281838 0)
(0.564664 0.0249578 0)
(0.563047 0.0245817 0)
(0.556142 0.0229836 0)
(0.556122 0.0229416 0)
(1.02084 0.122233 0)
(1.02362 0.130519 0)
(1.05443 0.215097 0)
(1.06013 0.228246 0)
(1.08933 0.278662 0)
(1.09324 0.28371 0)
(1.10358 0.29381 0)
(1.10422 0.293708 0)
(1.09512 0.281451 0)
(1.09289 0.278637 0)
(1.06981 0.256201 0)
(1.06564 0.252266 0)
(1.03429 0.22682 0)
(1.02903 0.22267 0)
(0.993777 0.19789 0)
(0.988053 0.193969 0)
(0.951879 0.171422 0)
(0.946109 0.167903 0)
(0.910875 0.148031 0)
(0.905314 0.144948 0)
(0.872087 0.127662 0)
(0.86688 0.124983 0)
(0.836216 0.109973 0)
(0.831437 0.107644 0)
(0.803582 0.0945535 0)
(0.799261 0.0925155 0)
(0.774285 0.0810175 0)
(0.770429 0.0792226 0)
(0.748304 0.0690623 0)
(0.744906 0.067476 0)
(0.725562 0.0585024 0)
(0.722613 0.0571091 0)
(0.705959 0.0493004 0)
(0.703437 0.048108 0)
(0.689202 0.0415989 0)
(0.687026 0.0406427 0)
(0.674712 0.0357362 0)
(0.672891 0.0350795 0)
(0.662937 0.0322735 0)
(0.661137 0.0319769 0)
(1.01966 0.116429 0)
(1.02253 0.125168 0)
(1.05209 0.208797 0)
(1.05779 0.221945 0)
(1.08809 0.274868 0)
(1.09201 0.279915 0)
(1.10532 0.293323 0)
(1.10597 0.293221 0)
(1.10045 0.283746 0)
(1.09821 0.280932 0)
(1.0785 0.260397 0)
(1.07433 0.256462 0)
(1.04577 0.232095 0)
(1.04051 0.227945 0)
(1.00739 0.203622 0)
(1.00166 0.199701 0)
(0.967013 0.177195 0)
(0.961242 0.173676 0)
(0.927031 0.153593 0)
(0.92147 0.15051 0)
(0.88888 0.132868 0)
(0.883674 0.130189 0)
(0.853361 0.114752 0)
(0.848582 0.112422 0)
(0.820875 0.0988741 0)
(0.816554 0.0968361 0)
(0.791583 0.0848735 0)
(0.787727 0.0830786 0)
(0.765512 0.07246 0)
(0.762115 0.0708736 0)
(0.742625 0.0614551 0)
(0.739676 0.0600618 0)
(0.722847 0.0518274 0)
(0.720325 0.050635 0)
(0.705909 0.0437288 0)
(0.703733 0.0427726 0)
(0.691245 0.0375206 0)
(0.689423 0.036864 0)
(0.681427 0.0340251 0)
(0.681196 0.0338771 0)
(1.01347 0.0910701 0)
(1.01555 0.0984002 0)
(1.04042 0.175928 0)
(1.04542 0.188573 0)
(1.07735 0.24725 0)
(1.08223 0.254248 0)
(1.1052 0.280309 0)
(1.10815 0.282823 0)
(1.11673 0.286201 0)
(1.11738 0.285728 0)
(1.11264 0.27539 0)
(1.11132 0.273178 0)
(1.09641 0.255688 0)
(1.09365 0.252623 0)
(1.07187 0.23223 0)
(1.06816 0.22887 0)
(1.04234 0.208057 0)
(1.03811 0.20472 0)
(1.01043 0.184777 0)
(1.00597 0.181621 0)
(0.977979 0.163113 0)
(0.973533 0.1602 0)
(0.946276 0.14328 0)
(0.941987 0.140621 0)
(0.91615 0.125232 0)
(0.912114 0.122812 0)
(0.888132 0.108816 0)
(0.884411 0.106613 0)
(0.862549 0.0938711 0)
(0.85918 0.0918658 0)
(0.839601 0.0803008 0)
(0.836608 0.0784891 0)
(0.819407 0.0681386 0)
(0.816798 0.0665397 0)
(0.801848 0.0576215 0)
(0.799561 0.0562903 0)
(0.786482 0.0492892 0)
(0.784553 0.0483363 0)
(0.774172 0.0441996 0)
(0.772427 0.0437747 0)
(1.01271 0.0872856 0)
(1.01485 0.0949117 0)
(1.03846 0.170451 0)
(1.04346 0.183096 0)
(1.07509 0.242388 0)
(1.07996 0.249386 0)
(1.10408 0.277438 0)
(1.10704 0.279952 0)
(1.11773 0.285583 0)
(1.11838 0.28511 0)
(1.11611 0.276721 0)
(1.1148 0.274509 0)
(1.10231 0.258462 0)
(1.09955 0.255397 0)
(1.07991 0.235946 0)
(1.0762 0.232586 0)
(1.05216 0.212298 0)
(1.04792 0.208961 0)
(1.02163 0.18923 0)
(1.01718 0.186074 0)
(0.990232 0.167558 0)
(0.985787 0.164645 0)
(0.959289 0.147568 0)
(0.955 0.144909 0)
(0.929688 0.129267 0)
(0.925652 0.126847 0)
(0.902011 0.112537 0)
(0.898289 0.110334 0)
(0.876627 0.0972404 0)
(0.873258 0.095235 0)
(0.853774 0.0832967 0)
(0.850781 0.081485 0)
(0.833599 0.0707526 0)
(0.83099 0.0691537 0)
(0.816008 0.0598599 0)
(0.813721 0.0585287 0)
(0.800577 0.0511877 0)
(0.798648 0.0502348 0)
(0.790002 0.0460752 0)
(0.7896 0.0458094 0)
(1.00865 0.0696011 0)
(1.01017 0.0758273 0)
(1.0291 0.142995 0)
(1.03316 0.154375 0)
(1.06221 0.213134 0)
(1.06697 0.220787 0)
(1.0939 0.255524 0)
(1.0978 0.259667 0)
(1.11597 0.274662 0)
(1.11832 0.276049 0)
(1.12613 0.276812 0)
(1.12686 0.27627 0)
(1.12516 0.26776 0)
(1.12447 0.265995 0)
(1.11507 0.252053 0)
(1.11326 0.249598 0)
(1.09823 0.232906 0)
(1.09562 0.230125 0)
(1.07683 0.212408 0)
(1.07371 0.209529 0)
(1.05276 0.191811 0)
(1.04936 0.188967 0)
(1.02748 0.171798 0)
(1.02399 0.169059 0)
(1.00211 0.152693 0)
(0.998658 0.150088 0)
(0.977471 0.134615 0)
(0.974155 0.132154 0)
(0.954155 0.117599 0)
(0.951052 0.115288 0)
(0.932606 0.101688 0)
(0.92977 0.0995391 0)
(0.913146 0.0870309 0)
(0.910611 0.085081 0)
(0.895828 0.0739976 0)
(0.893555 0.0723259 0)
(0.880377 0.0633621 0)
(0.878433 0.0621301 0)
(0.868066 0.0567114 0)
(0.866427 0.0561657 0)
(1.00822 0.067071 0)
(1.00977 0.0734951 0)
(1.0277 0.138591 0)
(1.03176 0.149971 0)
(1.06003 0.208353 0)
(1.0648 0.216006 0)
(1.09184 0.251672 0)
(1.09574 0.255815 0)
(1.11488 0.272331 0)
(1.11724 0.273719 0)
(1.12658 0.276093 0)
(1.12731 0.27555 0)
(1.12739 0.268462 0)
(1.1267 0.266697 0)
(1.1191 0.25387 0)
(1.11729 0.251415 0)
(1.1039 0.235518 0)
(1.10129 0.232737 0)
(1.08395 0.21553 0)
(1.08083 0.212651 0)
(1.06107 0.19521 0)
(1.05768 0.192367 0)
(1.03676 0.175294 0)
(1.03327 0.172554 0)
(1.01215 0.156149 0)
(1.00869 0.153543 0)
(0.988072 0.137932 0)
(0.984756 0.135471 0)
(0.96517 0.120703 0)
(0.962067 0.118392 0)
(0.943904 0.104527 0)
(0.941069 0.102378 0)
(0.924624 0.0895704 0)
(0.92209 0.0876205 0)
(0.907402 0.0762216 0)
(0.90513 0.0745499 0)
(0.891988 0.0652866 0)
(0.890044 0.0640547 0)
(0.881177 0.0586394 0)
(0.880651 0.0582573 0)
(1.00572 0.0545771 0)
(1.00682 0.0597952 0)
(1.021 0.11673 0)
(1.02418 0.126662 0)
(1.04866 0.181499 0)
(1.05287 0.189049 0)
(1.07913 0.227122 0)
(1.08317 0.232087 0)
(1.10518 0.254396 0)
(1.10835 0.257056 0)
(1.1234 0.26642 0)
(1.1254 0.267241 0)
(1.13286 0.266893 0)
(1.13366 0.266364 0)
(1.13403 0.259267 0)
(1.13376 0.257818 0)
(1.12815 0.246358 0)
(1.12701 0.244326 0)
(1.11677 0.230272 0)
(1.11496 0.227902 0)
(1.1014 0.212477 0)
(1.09912 0.209937 0)
(1.08341 0.193937 0)
(1.08084 0.191334 0)
(1.06394 0.175251 0)
(1.06123 0.172652 0)
(1.04394 0.156778 0)
(1.0412 0.154223 0)
(1.02415 0.138747 0)
(1.02147 0.136264 0)
(1.00517 0.121356 0)
(1.00264 0.11898 0)
(0.987469 0.104891 0)
(0.985137 0.102677 0)
(0.971247 0.0898747 0)
(0.969092 0.0879286 0)
(0.956394 0.0773212 0)
(0.954516 0.075854 0)
(0.944559 0.0693264 0)
(0.943067 0.0686789 0)
(1.00547 0.0528392 0)
(1.0066 0.0581933 0)
(1.02005 0.113298 0)
(1.02323 0.12323 0)
(1.04688 0.17726 0)
(1.05109 0.184811 0)
(1.07697 0.223105 0)
(1.08102 0.22807 0)
(1.10328 0.251248 0)
(1.10644 0.253907 0)
(1.12228 0.26443 0)
(1.12428 0.265251 0)
(1.13287 0.266096 0)
(1.13368 0.265567 0)
(1.13535 0.25954 0)
(1.13508 0.25809 0)
(1.13082 0.247509 0)
(1.12967 0.245476 0)
(1.12072 0.232088 0)
(1.1189 0.229718 0)
(1.1065 0.214757 0)
(1.10422 0.212218 0)
(1.08951 0.196507 0)
(1.08694 0.193905 0)
(1.07088 0.177966 0)
(1.06817 0.175367 0)
(1.05156 0.159519 0)
(1.04882 0.156964 0)
(1.03231 0.14142 0)
(1.02964 0.138937 0)
(1.01374 0.123888 0)
(1.01121 0.121512 0)
(0.996338 0.107228 0)
(0.994005 0.105014 0)
(0.980311 0.0919808 0)
(0.978156 0.0900346 0)
(0.965575 0.0791933 0)
(0.963698 0.0777261 0)
(0.955003 0.0712399 0)
(0.954398 0.0707548 0)
(1.00392 0.0438431 0)
(1.00474 0.0482141 0)
(1.01537 0.0962096 0)
(1.01785 0.104771 0)
(1.03777 0.154159 0)
(1.04132 0.161227 0)
(1.06487 0.199288 0)
(1.06865 0.204521 0)
(1.09102 0.230645 0)
(1.09441 0.23406 0)
(1.11276 0.249295 0)
(1.11541 0.251104 0)
(1.12835 0.257262 0)
(1.1301 0.25776 0)
(1.13726 0.256848 0)
(1.1381 0.256341 0)
(1.13981 0.250218 0)
(1.13982 0.248979 0)
(1.13682 0.239193 0)
(1.13613 0.237444 0)
(1.12931 0.225194 0)
(1.12807 0.223105 0)
(1.11838 0.209272 0)
(1.11673 0.206967 0)
(1.10501 0.192172 0)
(1.10308 0.189737 0)
(1.09012 0.174414 0)
(1.08803 0.171912 0)
(1.07449 0.15638 0)
(1.07233 0.15386 0)
(1.05876 0.138408 0)
(1.05663 0.135922 0)
(1.0435 0.120918 0)
(1.04145 0.118542 0)
(1.02898 0.104581 0)
(1.02702 0.102445 0)
(1.01525 0.0906352 0)
(1.0135 0.0889941 0)
(1.00428 0.0816193 0)
(1.00296 0.0808968 0)
(1.00378 0.0426114 0)
(1.00461 0.0470787 0)
(1.01474 0.093559 0)
(1.01721 0.102121 0)
(1.0364 0.150582 0)
(1.03995 0.157649 0)
(1.06294 0.195524 0)
(1.06672 0.200757 0)
(1.08894 0.227265 0)
(1.09233 0.23068 0)
(1.11095 0.246652 0)
(1.1136 0.248461 0)
(1.12714 0.255513 0)
(1.1289 0.256012 0)
(1.1369 0.256007 0)
(1.13774 0.2555 0)
(1.14042 0.250206 0)
(1.14044 0.248967 0)
(1.13845 0.239881 0)
(1.13776 0.238132 0)
(1.13194 0.226438 0)
(1.13069 0.224349 0)
(1.12191 0.210927 0)
(1.12026 0.208621 0)
(1.10936 0.194105 0)
(1.10743 0.19167 0)
(1.09517 0.176508 0)
(1.09308 0.174006 0)
(1.08012 0.158535 0)
(1.07797 0.156015 0)
(1.06487 0.140542 0)
(1.06274 0.138056 0)
(1.04996 0.122965 0)
(1.04792 0.120588 0)
(1.0357 0.106493 0)
(1.03374 0.104357 0)
(1.02215 0.0923927 0)
(1.0204 0.0907516 0)
(1.01221 0.0834619 0)
(1.01156 0.0828957 0)
(1.00279 0.0359866 0)
(1.00341 0.0396696 0)
(1.01146 0.0802491 0)
(1.01339 0.0876106 0)
(1.02936 0.131341 0)
(1.03228 0.137778 0)
(1.05249 0.174002 0)
(1.05584 0.179164 0)
(1.07673 0.206642 0)
(1.08001 0.210422 0)
(1.09905 0.229183 0)
(1.10192 0.231636 0)
(1.11751 0.242482 0)
(1.11977 0.243755 0)
(1.13107 0.247875 0)
(1.13262 0.248162 0)
(1.1394 0.246845 0)
(1.14025 0.246342 0)
(1.14275 0.240794 0)
(1.14294 0.239681 0)
(1.14166 0.230935 0)
(1.14128 0.229361 0)
(1.13685 0.218251 0)
(1.136 0.216337 0)
(1.12909 0.203511 0)
(1.12789 0.201351 0)
(1.11916 0.187308 0)
(1.1177 0.184975 0)
(1.10775 0.170116 0)
(1.10613 0.167674 0)
(1.09552 0.15238 0)
(1.09382 0.149895 0)
(1.083 0.134629 0)
(1.08129 0.132193 0)
(1.07053 0.117664 0)
(1.06881 0.115428 0)
(1.05827 0.10291 0)
(1.0567 0.101165 0)
(1.04843 0.0932514 0)
(1.04731 0.0924839 0)
(1.00271 0.0350867 0)
(1.00333 0.0388401 0)
(1.01102 0.0781979 0)
(1.01295 0.0855594 0)
(1.02831 0.128394 0)
(1.03124 0.134831 0)
(1.05088 0.170667 0)
(1.05423 0.175829 0)
(1.07478 0.203372 0)
(1.07805 0.207153 0)
(1.09704 0.226316 0)
(1.09991 0.228769 0)
(1.11573 0.240225 0)
(1.11799 0.241498 0)
(1.12975 0.246322 0)
(1.13131 0.246609 0)
(1.13871 0.246 0)
(1.13956 0.245498 0)
(1.14279 0.240605 0)
(1.14298 0.239492 0)
(1.14246 0.231313 0)
(1.14209 0.22974 0)
(1.13841 0.219093 0)
(1.13757 0.21718 0)
(1.13137 0.204711 0)
(1.13017 0.202552 0)
(1.12208 0.188764 0)
(1.12062 0.186432 0)
(1.11124 0.171736 0)
(1.10962 0.169294 0)
(1.09948 0.154081 0)
(1.09778 0.151596 0)
(1.08734 0.136342 0)
(1.08563 0.133906 0)
(1.07516 0.119336 0)
(1.07344 0.117101 0)
(1.06311 0.10451 0)
(1.06154 0.102765 0)
(1.05407 0.0949796 0)
(1.05343 0.0943588 0)
(1.00205 0.0301048 0)
(1.00252 0.0332372 0)
(1.00869 0.0678002 0)
(1.0102 0.0741502 0)
(1.02293 0.112627 0)
(1.02532 0.11841 0)
(1.04225 0.151971 0)
(1.04512 0.15688 0)
(1.06372 0.184158 0)
(1.06671 0.188041 0)
(1.08492 0.208559 0)
(1.08774 0.211381 0)
(1.10402 0.225299 0)
(1.10647 0.227111 0)
(1.11981 0.235007 0)
(1.12175 0.235912 0)
(1.13161 0.238573 0)
(1.13299 0.238697 0)
(1.13926 0.236966 0)
(1.14007 0.23644 0)
(1.14291 0.231116 0)
(1.14319 0.230059 0)
(1.14295 0.221848 0)
(1.14277 0.220365 0)
(1.1399 0.209865 0)
(1.13932 0.208044 0)
(1.13433 0.195754 0)
(1.13344 0.193671 0)
(1.12682 0.180028 0)
(1.1257 0.177752 0)
(1.11793 0.163188 0)
(1.11666 0.160796 0)
(1.10818 0.145843 0)
(1.1068 0.143438 0)
(1.09786 0.128893 0)
(1.0964 0.126643 0)
(1.08723 0.113901 0)
(1.08586 0.112121 0)
(1.07869 0.103982 0)
(1.07777 0.1032 0)
(1.002 0.0294307 0)
(1.00247 0.0326158 0)
(1.00838 0.0662035 0)
(1.00989 0.0725535 0)
(1.02214 0.110228 0)
(1.02453 0.116011 0)
(1.04095 0.149108 0)
(1.04382 0.154017 0)
(1.062 0.181173 0)
(1.06499 0.185056 0)
(1.08297 0.205739 0)
(1.08579 0.208561 0)
(1.10205 0.222856 0)
(1.1045 0.224668 0)
(1.11802 0.23307 0)
(1.11996 0.233975 0)
(1.13017 0.237199 0)
(1.13154 0.237324 0)
(1.13828 0.236158 0)
(1.13909 0.235632 0)
(1.14247 0.230836 0)
(1.14275 0.229779 0)
(1.14308 0.222034 0)
(1.14289 0.220551 0)
(1.1406 0.210441 0)
(1.14002 0.20862 0)
(1.13557 0.196641 0)
(1.13468 0.194558 0)
(1.12855 0.181147 0)
(1.12743 0.178871 0)
(1.1201 0.164466 0)
(1.11883 0.162074 0)
(1.11071 0.147216 0)
(1.10934 0.144812 0)
(1.10068 0.130308 0)
(1.09922 0.128059 0)
(1.09028 0.11532 0)
(1.08891 0.113539 0)
(1.08233 0.105567 0)
(1.08172 0.104919 0)
(1.00155 0.0256187 0)
(1.00191 0.028312 0)
(1.0067 0.0580361 0)
(1.00788 0.0635494 0)
(1.01803 0.0974066 0)
(1.01996 0.102577 0)
(1.03397 0.133239 0)
(1.03639 0.137815 0)
(1.05247 0.164019 0)
(1.0551 0.167842 0)
(1.07167 0.188906 0)
(1.07429 0.191901 0)
(1.09002 0.207621 0)
(1.09244 0.209777 0)
(1.10633 0.220313 0)
(1.10841 0.221669 0)
(1.11978 0.227416 0)
(1.12143 0.228043 0)
(1.12996 0.22952 0)
(1.13115 0.2295 0)
(1.13675 0.227264 0)
(1.13749 0.226684 0)
(1.14028 0.221277 0)
(1.14058 0.22022 0)
(1.14083 0.212142 0)
(1.14075 0.210683 0)
(1.13879 0.200388 0)
(1.13837 0.198598 0)
(1.13458 0.186514 0)
(1.13389 0.184464 0)
(1.12865 0.171044 0)
(1.12775 0.168813 0)
(1.12143 0.154628 0)
(1.12037 0.152329 0)
(1.11318 0.138231 0)
(1.11197 0.136041 0)
(1.1042 0.123503 0)
(1.10304 0.121747 0)
(1.097 0.11367 0)
(1.09628 0.1129 0)
(1.00151 0.0251038 0)
(1.00188 0.0278374 0)
(1.00647 0.0567838 0)
(1.00766 0.0622971 0)
(1.01743 0.0954632 0)
(1.01937 0.100634 0)
(1.03293 0.130827 0)
(1.03535 0.135403 0)
(1.05101 0.161387 0)
(1.05365 0.165211 0)
(1.06991 0.186287 0)
(1.07252 0.189281 0)
(1.08809 0.205204 0)
(1.09051 0.20736 0)
(1.10438 0.218236 0)
(1.10646 0.219592 0)
(1.11796 0.225763 0)
(1.11961 0.22639 0)
(1.12838 0.228327 0)
(1.12957 0.228308 0)
(1.1355 0.226532 0)
(1.13624 0.225952 0)
(1.13942 0.220978 0)
(1.13972 0.21992 0)
(1.14039 0.212229 0)
(1.1403 0.210771 0)
(1.13877 0.200806 0)
(1.13835 0.199016 0)
(1.13496 0.187203 0)
(1.13427 0.185153 0)
(1.1294 0.171944 0)
(1.1285 0.169714 0)
(1.1225 0.155685 0)
(1.12144 0.153385 0)
(1.11452 0.139395 0)
(1.11331 0.137205 0)
(1.10576 0.124733 0)
(1.10459 0.122978 0)
(1.09897 0.115095 0)
(1.09841 0.114446 0)
(1.00119 0.0221449 0)
(1.00147 0.0244876 0)
(1.00523 0.0503258 0)
(1.00617 0.0551532 0)
(1.01429 0.0850665 0)
(1.01585 0.0896909 0)
(1.02736 0.117545 0)
(1.02938 0.121767 0)
(1.04302 0.146483 0)
(1.04529 0.150158 0)
(1.05989 0.171015 0)
(1.06224 0.174051 0)
(1.07671 0.190661 0)
(1.07897 0.193015 0)
(1.09241 0.205273 0)
(1.09445 0.206942 0)
(1.10617 0.214962 0)
(1.10791 0.215972 0)
(1.11746 0.220012 0)
(1.11885 0.220407 0)
(1.12602 0.220807 0)
(1.12703 0.220643 0)
(1.13178 0.217776 0)
(1.1324 0.217113 0)
(1.13484 0.211363 0)
(1.1351 0.21026 0)
(1.13541 0.202009 0)
(1.13535 0.200528 0)
(1.13377 0.190168 0)
(1.13343 0.188375 0)
(1.13027 0.176354 0)
(1.12968 0.174329 0)
(1.12521 0.161229 0)
(1.12443 0.159088 0)
(1.11881 0.145791 0)
(1.11783 0.143715 0)
(1.11139 0.131721 0)
(1.11042 0.13004 0)
(1.10549 0.122259 0)
(1.10495 0.121522 0)
(1.00116 0.0217452 0)
(1.00145 0.0241192 0)
(1.00506 0.0493355 0)
(1.006 0.0541629 0)
(1.01383 0.0834933 0)
(1.0154 0.0881177 0)
(1.02654 0.115536 0)
(1.02855 0.119758 0)
(1.04182 0.144217 0)
(1.04409 0.147892 0)
(1.05836 0.168671 0)
(1.0607 0.171708 0)
(1.07493 0.188401 0)
(1.07719 0.190755 0)
(1.09048 0.203225 0)
(1.09253 0.204894 0)
(1.10422 0.213219 0)
(1.10596 0.214228 0)
(1.11559 0.218628 0)
(1.11697 0.219023 0)
(1.12431 0.219806 0)
(1.12531 0.219642 0)
(1.1303 0.217156 0)
(1.13092 0.216492 0)
(1.13362 0.211102 0)
(1.13388 0.209999 0)
(1.13449 0.202073 0)
(1.13443 0.200592 0)
(1.13316 0.190516 0)
(1.13281 0.188723 0)
(1.12994 0.17694 0)
(1.12935 0.174916 0)
(1.12515 0.162011 0)
(1.12436 0.15987 0)
(1.11898 0.146726 0)
(1.118 0.14465 0)
(1.11176 0.13277 0)
(1.11079 0.131089 0)
(1.10612 0.12352 0)
(1.10562 0.12289 0)
(1.00093 0.0194174 0)
(1.00116 0.0214789 0)
(1.00414 0.0441877 0)
(1.00489 0.0484545 0)
(1.01143 0.0750552 0)
(1.0127 0.0792074 0)
(1.02214 0.104506 0)
(1.02381 0.108389 0)
(1.03527 0.131498 0)
(1.03719 0.134986 0)
(1.04978 0.155222 0)
(1.05182 0.158223 0)
(1.06469 0.17512 0)
(1.06673 0.177572 0)
(1.0791 0.190873 0)
(1.08101 0.192746 0)
(1.09226 0.202373 0)
(1.09396 0.203663 0)
(1.10364 0.209676 0)
(1.10506 0.210399 0)
(1.11287 0.212957 0)
(1.11399 0.213141 0)
(1.11978 0.212471 0)
(1.12058 0.212153 0)
(1.12435 0.208522 0)
(1.12483 0.207747 0)
(1.12666 0.201453 0)
(1.12684 0.200272 0)
(1.12687 0.191659 0)
(1.12677 0.190132 0)
(1.12519 0.179621 0)
(1.12485 0.177825 0)
(1.12186 0.165995 0)
(1.1213 0.164045 0)
(1.11701 0.151779 0)
(1.11624 0.149856 0)
(1.11099 0.138647 0)
(1.1102 0.137075 0)
(1.10631 0.129759 0)
(1.10592 0.129071 0)
(1.00091 0.0191022 0)
(1.00114 0.0211884 0)
(1.00402 0.0433962 0)
(1.00477 0.0476629 0)
(1.01108 0.0737775 0)
(1.01236 0.0779297 0)
(1.0215 0.102842 0)
(1.02316 0.106725 0)
(1.03429 0.129576 0)
(1.03621 0.133064 0)
(1.04848 0.153179 0)
(1.05052 0.15618 0)
(1.06312 0.173087 0)
(1.06515 0.175539 0)
(1.07732 0.188962 0)
(1.07923 0.190836 0)
(1.09035 0.200672 0)
(1.09205 0.201963 0)
(1.10168 0.208247 0)
(1.10311 0.20897 0)
(1.11094 0.211837 0)
(1.11206 0.21202 0)
(1.11795 0.211672 0)
(1.11875 0.211355 0)
(1.12267 0.208041 0)
(1.12315 0.207267 0)
(1.12516 0.201275 0)
(1.12534 0.200094 0)
(1.12557 0.191757 0)
(1.12548 0.19023 0)
(1.12411 0.179965 0)
(1.12377 0.178169 0)
(1.12098 0.166553 0)
(1.12042 0.164602 0)
(1.11632 0.152518 0)
(1.11555 0.150594 0)
(1.11047 0.13953 0)
(1.10969 0.137957 0)
(1.10592 0.13086 0)
(1.10549 0.130265 0)
(1.00075 0.0172408 0)
(1.00093 0.0190745 0)
(1.00334 0.0392446 0)
(1.00395 0.0430521 0)
(1.00928 0.066894 0)
(1.01032 0.0706458 0)
(1.01809 0.0937082 0)
(1.01947 0.0972854 0)
(1.02903 0.118847 0)
(1.03065 0.122143 0)
(1.04134 0.141585 0)
(1.04309 0.144511 0)
(1.05425 0.161344 0)
(1.05603 0.16383 0)
(1.06702 0.177711 0)
(1.06874 0.179712 0)
(1.07903 0.190437 0)
(1.0806 0.191929 0)
(1.08976 0.199419 0)
(1.09113 0.200393 0)
(1.09885 0.20467 0)
(1.09998 0.205135 0)
(1.10608 0.206299 0)
(1.10694 0.206275 0)
(1.11134 0.20449 0)
(1.11193 0.204007 0)
(1.11463 0.199495 0)
(1.11495 0.198591 0)
(1.11601 0.19164 0)
(1.11608 0.190369 0)
(1.11561 0.181367 0)
(1.11544 0.179803 0)
(1.11357 0.169311 0)
(1.11318 0.167564 0)
(1.10996 0.15645 0)
(1.10935 0.154699 0)
(1.10512 0.144417 0)
(1.10451 0.142973 0)
(1.10154 0.13623 0)
(1.10128 0.135599 0)
(1.00073 0.0169867 0)
(1.00092 0.0188403 0)
(1.00325 0.0386018 0)
(1.00386 0.0424093 0)
(1.00903 0.065848 0)
(1.01007 0.0695998 0)
(1.0176 0.0923303 0)
(1.01898 0.0959076 0)
(1.02826 0.117232 0)
(1.02988 0.120529 0)
(1.04028 0.139838 0)
(1.04202 0.142763 0)
(1.05291 0.159567 0)
(1.05469 0.162054 0)
(1.06545 0.175999 0)
(1.06716 0.178 0)
(1.07726 0.188867 0)
(1.07883 0.190359 0)
(1.08787 0.19805 0)
(1.08924 0.199025 0)
(1.0969 0.203543 0)
(1.09803 0.204009 0)
(1.10412 0.205436 0)
(1.10499 0.205413 0)
(1.10943 0.2039 0)
(1.11003 0.203416 0)
(1.11281 0.199172 0)
(1.11313 0.198269 0)
(1.11431 0.191573 0)
(1.11438 0.190302 0)
(1.11405 0.181537 0)
(1.11388 0.179973 0)
(1.11216 0.169696 0)
(1.11177 0.167949 0)
(1.1087 0.157026 0)
(1.10809 0.155275 0)
(1.10401 0.145152 0)
(1.10339 0.143709 0)
(1.10045 0.137179 0)
(1.10011 0.136629 0)
(1.00062 0.0154608 0)
(1.00078 0.0171069 0)
(1.00278 0.035191 0)
(1.00329 0.0386194 0)
(1.00773 0.0601733 0)
(1.00859 0.0635905 0)
(1.01505 0.0847537 0)
(1.0162 0.0880677 0)
(1.02418 0.108248 0)
(1.02553 0.111367 0)
(1.03452 0.130002 0)
(1.03599 0.132841 0)
(1.04549 0.149442 0)
(1.04701 0.151929 0)
(1.05651 0.166103 0)
(1.058 0.168183 0)
(1.06706 0.179649 0)
(1.06845 0.181283 0)
(1.07671 0.189863 0)
(1.07795 0.191029 0)
(1.08512 0.196644 0)
(1.08617 0.197334 0)
(1.09206 0.199987 0)
(1.0929 0.200206 0)
(1.09739 0.199979 0)
(1.09801 0.199744 0)
(1.10105 0.196789 0)
(1.10144 0.196131 0)
(1.10305 0.190686 0)
(1.10322 0.18965 0)
(1.10345 0.182068 0)
(1.10339 0.180725 0)
(1.10231 0.171542 0)
(1.10205 0.169998 0)
(1.09965 0.160057 0)
(1.09918 0.158483 0)
(1.09582 0.149181 0)
(1.09534 0.147874 0)
(1.09318 0.141751 0)
(1.09304 0.141181 0)
(1.00062 0.0152485 0)
(1.00077 0.0169112 0)
(1.00273 0.0346558 0)
(1.00324 0.0380842 0)
(1.00755 0.0593049 0)
(1.00842 0.0627221 0)
(1.0147 0.0836091 0)
(1.01584 0.0869231 0)
(1.02359 0.1069 0)
(1.02494 0.110019 0)
(1.03368 0.128531 0)
(1.03516 0.13137 0)
(1.04439 0.147927 0)
(1.04591 0.150414 0)
(1.05517 0.16462 0)
(1.05665 0.1667 0)
(1.06551 0.178261 0)
(1.0669 0.179895 0)
(1.07499 0.188624 0)
(1.07623 0.18979 0)
(1.08327 0.195591 0)
(1.08433 0.196281 0)
(1.09014 0.199146 0)
(1.09098 0.199365 0)
(1.09545 0.199363 0)
(1.09607 0.199129 0)
(1.09914 0.196403 0)
(1.09952 0.195745 0)
(1.10119 0.190524 0)
(1.10135 0.189489 0)
(1.10166 0.182124 0)
(1.10161 0.18078 0)
(1.10063 0.171801 0)
(1.10036 0.170257 0)
(1.09808 0.160502 0)
(1.09761 0.158929 0)
(1.09437 0.149787 0)
(1.0939 0.148481 0)
(1.09171 0.14256 0)
(1.09144 0.142058 0)
(1.00057 0.0139392 0)
(1.0007 0.0154277 0)
(1.00247 0.0317638 0)
(1.00291 0.0348764 0)
(1.00672 0.0545403 0)
(1.00746 0.0576827 0)
(1.01293 0.0772838 0)
(1.0139 0.0803815 0)
(1.02059 0.0994063 0)
(1.02172 0.102376 0)
(1.02925 0.120297 0)
(1.03048 0.123056 0)
(1.03844 0.139384 0)
(1.03972 0.141859 0)
(1.04775 0.156175 0)
(1.04901 0.158304 0)
(1.05675 0.170274 0)
(1.05794 0.17201 0)
(1.06511 0.181393 0)
(1.06618 0.182702 0)
(1.07252 0.189347 0)
(1.07346 0.190211 0)
(1.0788 0.194049 0)
(1.07957 0.194463 0)
(1.08379 0.195512 0)
(1.08437 0.195483 0)
(1.0874 0.193841 0)
(1.0878 0.193391 0)
(1.08961 0.189253 0)
(1.08982 0.188424 0)
(1.09044 0.182113 0)
(1.09045 0.180969 0)
(1.08989 0.172995 0)
(1.08972 0.171639 0)
(1.08795 0.162816 0)
(1.08758 0.161413 0)
(1.08494 0.153072 0)
(1.08459 0.151901 0)
(1.08314 0.146405 0)
(1.08309 0.145896 0)
(1.00057 0.0137471 0)
(1.0007 0.0152506 0)
(1.00245 0.0312964 0)
(1.00289 0.034409 0)
(1.00663 0.0537996 0)
(1.00737 0.0569419 0)
(1.0127 0.0763215 0)
(1.01367 0.0794192 0)
(1.02018 0.098281 0)
(1.02131 0.10125 0)
(1.02862 0.11907 0)
(1.02985 0.121829 0)
(1.03759 0.138116 0)
(1.03886 0.140591 0)
(1.04666 0.154923 0)
(1.04792 0.157052 0)
(1.05545 0.169089 0)
(1.05664 0.170825 0)
(1.06362 0.180317 0)
(1.0647 0.181627 0)
(1.07089 0.188413 0)
(1.07183 0.189278 0)
(1.07706 0.193282 0)
(1.07783 0.193696 0)
(1.08199 0.194927 0)
(1.08257 0.194898 0)
(1.08558 0.193445 0)
(1.08597 0.192996 0)
(1.0878 0.189049 0)
(1.088 0.18822 0)
(1.08866 0.182098 0)
(1.08867 0.180953 0)
(1.08818 0.173163 0)
(1.08801 0.171806 0)
(1.08632 0.163156 0)
(1.08595 0.161752 0)
(1.08342 0.153565 0)
(1.08307 0.152394 0)