/*--------------------------------*- C++ -*----------------------------------*\
| =========                 |                                                 |
| \\      /  F ield         | OpenFOAM: The Open Source CFD Toolbox           |
|  \\    /   O peration     | Version:  v2012                                 |
|   \\  /    A nd           | Website:  www.openfoam.com                      |
|    \\/     M anipulation  |                                                 |
\*---------------------------------------------------------------------------*/
FoamFile
{
    version     2.0;
    format      ascii;
    class       volScalarField;
    location    "0.7";
    object      p;
}
// * * * * * * * * * * * * * * * * * * * * * * * * * * * * * * * * * * * * * //

dimensions      [0 2 -2 0 0 0 0];


internalField   nonuniform List<scalar> 
1600
(
2.22047e-08
-4.75927
-7.11116
-8.08375
-8.59958
-8.91444
-9.11695
-9.25664
-9.35979
-9.43977
-9.50398
-9.55689
-9.60141
-9.6395
-9.67255
-9.70157
-9.72733
-9.75042
-9.77127
-9.79027
-9.8077
-9.8238
-9.83877
-9.85278
-9.86598
-9.87849
-9.89045
-9.90194
-9.91307
-9.92394
-9.93464
-9.94526
-9.95588
-9.96658
-9.97741
-9.98839
-9.99946
-10.0105
-10.0213
-10.0283
-3.82628
-5.73079
-7.04157
-7.81176
-8.32499
-8.68005
-8.92726
-9.10484
-9.23743
-9.33977
-9.421
-9.48707
-9.54191
-9.58825
-9.62798
-9.66251
-9.69286
-9.71981
-9.74398
-9.76583
-9.78574
-9.80402
-9.82092
-9.83667
-9.85143
-9.86536
-9.87861
-9.89129
-9.90352
-9.9154
-9.92701
-9.93847
-9.94982
-9.96116
-9.9725
-9.98386
-9.99514
-10.0064
-10.0179
-10.0256
-6.08905
-6.68321
-7.33341
-7.86794
-8.28516
-8.60279
-8.84197
-9.02375
-9.16444
-9.27543
-9.36469
-9.43779
-9.49865
-9.55011
-9.59421
-9.63246
-9.66601
-9.69573
-9.7223
-9.74625
-9.76803
-9.78797
-9.80636
-9.82344
-9.83941
-9.85446
-9.86872
-9.88233
-9.89541
-9.90808
-9.92042
-9.93253
-9.94448
-9.95634
-9.96816
-9.97992
-9.99159
-10.0034
-10.0157
-10.0242
-7.24293
-7.38984
-7.71502
-8.06405
-8.37031
-8.62442
-8.83068
-8.9969
-9.13121
-9.2406
-9.33065
-9.40563
-9.46882
-9.52269
-9.56911
-9.60954
-9.64509
-9.67663
-9.70485
-9.7303
-9.75342
-9.77459
-9.7941
-9.81221
-9.82913
-9.84503
-9.86009
-9.87445
-9.88821
-9.90151
-9.91444
-9.92708
-9.93953
-9.95184
-9.96409
-9.97629
-9.98842
-10.0009
-10.0141
-10.0231
-7.90975
-7.90083
-8.0556
-8.27392
-8.48953
-8.68456
-8.85441
-8.99907
-9.12108
-9.22383
-9.31065
-9.38442
-9.44756
-9.50204
-9.54942
-9.59096
-9.62768
-9.66039
-9.68974
-9.71627
-9.74041
-9.76253
-9.78293
-9.80187
-9.81956
-9.83619
-9.85192
-9.8669
-9.88125
-9.89509
-9.90853
-9.92164
-9.93453
-9.94727
-9.95994
-9.97257
-9.98518
-9.99825
-10.0124
-10.0217
-8.32781
-8.26967
-8.33545
-8.46821
-8.61679
-8.76305
-8.89906
-9.02103
-9.12825
-9.2216
-9.30262
-9.37297
-9.43424
-9.48783
-9.53497
-9.57668
-9.61381
-9.64707
-9.67705
-9.70424
-9.72906
-9.75185
-9.7729
-9.79246
-9.81075
-9.82795
-9.84422
-9.85971
-9.87454
-9.88883
-9.90269
-9.91621
-9.92948
-9.9426
-9.95564
-9.96867
-9.98173
-9.99537
-10.0103
-10.0199
-8.60387
-8.53769
-8.55968
-8.6392
-8.74045
-8.84853
-8.95537
-9.05597
-9.14796
-9.2307
-9.30445
-9.36993
-9.428
-9.47957
-9.5255
-9.56655
-9.6034
-9.63664
-9.66678
-9.69424
-9.7194
-9.74257
-9.76403
-9.78401
-9.80271
-9.82032
-9.83699
-9.85287
-9.86807
-9.88272
-9.89691
-9.91076
-9.92435
-9.93777
-9.95114
-9.96451
-9.97795
-9.99208
-10.0076
-10.0173
-8.79721
-8.7367
-8.73809
-8.78516
-8.85385
-8.93316
-9.0162
-9.09803
-9.1757
-9.24777
-9.31371
-9.37354
-9.4276
-9.47635
-9.52034
-9.5601
-9.59612
-9.62886
-9.65874
-9.68611
-9.71131
-9.7346
-9.75624
-9.77643
-9.79538
-9.81325
-9.83018
-9.84632
-9.86178
-9.87669
-9.89113
-9.90522
-9.91905
-9.93272
-9.94633
-9.95998
-9.97372
-9.98824
-10.0042
-10.014
-8.94024
-8.88854
-8.88071
-8.90809
-8.95471
-9.01284
-9.07708
-9.14313
-9.20805
-9.27007
-9.32826
-9.38219
-9.43181
-9.47726
-9.51882
-9.55681
-9.59157
-9.62342
-9.6527
-9.67968
-9.70464
-9.72782
-9.74943
-9.76966
-9.78868
-9.80666
-9.82372
-9.84
-9.85562
-9.87068
-9.88528
-9.89953
-9.91351
-9.92735
-9.94114
-9.95497
-9.96893
-9.98372
-10
-10.0097
-9.05071
-9.00747
-8.99597
-9.01144
-9.04316
-9.08586
-9.13554
-9.18865
-9.24258
-9.29554
-9.3464
-9.39452
-9.43957
-9.48148
-9.52031
-9.55621
-9.58938
-9.62005
-9.64844
-9.67477
-9.69927
-9.72211
-9.7435
-9.76359
-9.78254
-9.80049
-9.81755
-9.83386
-9.84952
-9.86464
-9.87931
-9.89362
-9.90769
-9.9216
-9.93548
-9.94941
-9.96348
-9.97843
-9.9949
-10.0044
-9.13889
-9.10286
-9.09036
-9.09863
-9.12028
-9.15181
-9.1903
-9.23299
-9.27765
-9.32264
-9.36681
-9.40941
-9.44998
-9.48828
-9.52422
-9.55783
-9.5892
-9.61845
-9.64573
-9.67121
-9.69504
-9.71738
-9.73837
-9.75817
-9.7769
-9.79468
-9.81163
-9.82785
-9.84345
-9.85853
-9.87317
-9.88746
-9.90152
-9.91543
-9.9293
-9.94323
-9.95732
-9.97229
-9.9888
-9.99796
-9.21109
-9.18098
-9.16873
-9.17265
-9.18748
-9.2109
-9.24086
-9.27522
-9.31217
-9.35028
-9.38848
-9.42599
-9.46228
-9.49703
-9.53005
-9.56127
-9.5907
-9.61837
-9.64438
-9.66883
-9.69183
-9.7135
-9.73396
-9.75332
-9.7717
-9.78919
-9.80591
-9.82194
-9.83737
-9.85231
-9.86683
-9.88102
-9.89497
-9.90878
-9.92257
-9.9364
-9.95039
-9.96528
-9.98167
-9.9904
-9.27143
-9.24612
-9.23468
-9.23597
-9.24615
-9.26368
-9.28712
-9.31487
-9.34547
-9.37772
-9.41066
-9.44355
-9.47586
-9.50721
-9.53736
-9.56617
-9.59357
-9.61957
-9.64419
-9.66748
-9.68952
-9.71039
-9.73018
-9.74899
-9.76689
-9.78399
-9.80036
-9.81609
-9.83127
-9.84597
-9.86027
-9.87426
-9.88802
-9.90165
-9.91525
-9.92889
-9.94268
-9.95737
-9.97349
-9.98168
-9.3227
-9.30128
-9.29085
-9.29058
-9.29756
-9.31079
-9.32925
-9.35176
-9.37715
-9.40445
-9.43282
-9.46158
-9.49024
-9.51839
-9.54577
-9.5722
-9.59758
-9.62184
-9.64499
-9.66703
-9.688
-9.70797
-9.72698
-9.74512
-9.76245
-9.77904
-9.79497
-9.81031
-9.82513
-9.8395
-9.8535
-9.8672
-9.88068
-9.89404
-9.90735
-9.92071
-9.93419
-9.94857
-9.96429
-9.97183
-9.36686
-9.34863
-9.33923
-9.33806
-9.34284
-9.3529
-9.36755
-9.38589
-9.40703
-9.43016
-9.45458
-9.4797
-9.50504
-9.53022
-9.55498
-9.57912
-9.60248
-9.625
-9.64663
-9.66735
-9.68719
-9.70616
-9.72431
-9.74169
-9.75834
-9.77434
-9.78973
-9.80458
-9.81896
-9.83291
-9.84652
-9.85985
-9.87297
-9.88596
-9.8989
-9.91188
-9.92496
-9.93891
-9.95411
-9.9609
-9.40536
-9.38975
-9.38135
-9.37968
-9.38293
-9.39064
-9.40235
-9.41738
-9.43503
-9.45467
-9.4757
-9.49761
-9.51997
-9.54244
-9.56475
-9.58668
-9.60809
-9.62888
-9.64898
-9.66835
-9.68699
-9.70491
-9.72212
-9.73865
-9.75456
-9.76987
-9.78465
-9.79893
-9.81277
-9.82623
-9.83937
-9.85223
-9.8649
-9.87744
-9.88994
-9.90244
-9.91503
-9.92846
-9.94301
-9.94895
-9.43926
-9.42582
-9.41835
-9.41644
-9.41862
-9.42458
-9.434
-9.44639
-9.46119
-9.4779
-9.49602
-9.51512
-9.53483
-9.55483
-9.57486
-9.59472
-9.61425
-9.63334
-9.65192
-9.66993
-9.68734
-9.70415
-9.72036
-9.736
-9.75108
-9.76564
-9.77972
-9.79336
-9.80659
-9.81948
-9.83206
-9.8444
-9.85654
-9.86855
-9.88051
-9.89246
-9.90447
-9.91728
-9.93107
-9.9361
-9.46939
-9.45777
-9.45114
-9.44914
-9.45057
-9.45521
-9.46285
-9.47311
-9.48558
-9.49982
-9.51546
-9.53211
-9.54946
-9.56722
-9.58516
-9.60307
-9.62081
-9.63827
-9.65535
-9.67199
-9.68816
-9.70384
-9.71902
-9.7337
-9.74791
-9.76165
-9.77497
-9.7879
-9.80046
-9.8127
-9.82466
-9.83638
-9.84792
-9.85934
-9.87068
-9.882
-9.89335
-9.90546
-9.9184
-9.92245
-9.49639
-9.4863
-9.48042
-9.47843
-9.47933
-9.48297
-9.48921
-9.49776
-9.50829
-9.52047
-9.53397
-9.5485
-9.56375
-9.57949
-9.59551
-9.61162
-9.62767
-9.64356
-9.65918
-9.67448
-9.68941
-9.70394
-9.71805
-9.73174
-9.74503
-9.75791
-9.77042
-9.78257
-9.79439
-9.80592
-9.8172
-9.82825
-9.83912
-9.84987
-9.86054
-9.87115
-9.88178
-9.89311
-9.90512
-9.90813
-9.52076
-9.51197
-9.50675
-9.50484
-9.50537
-9.50824
-9.51337
-9.52052
-9.52945
-9.53989
-9.55157
-9.56423
-9.57763
-9.59156
-9.60583
-9.62026
-9.63473
-9.64912
-9.66334
-9.67732
-9.69102
-9.7044
-9.71743
-9.73011
-9.74244
-9.75442
-9.76606
-9.7774
-9.78843
-9.7992
-9.80973
-9.82005
-9.8302
-9.84021
-9.85014
-9.86
-9.86983
-9.88033
-9.89135
-9.89328
-9.54291
-9.53523
-9.5306
-9.52879
-9.52906
-9.53135
-9.53558
-9.54159
-9.54919
-9.55815
-9.56826
-9.57929
-9.59106
-9.60336
-9.61603
-9.62893
-9.64191
-9.65488
-9.66776
-9.68046
-9.69295
-9.70518
-9.71713
-9.72879
-9.74014
-9.75118
-9.76193
-9.77241
-9.78261
-9.79257
-9.8023
-9.81184
-9.82121
-9.83045
-9.83959
-9.84863
-9.85762
-9.86723
-9.8772
-9.87804
-9.56317
-9.55645
-9.55234
-9.55065
-9.55074
-9.55256
-9.55607
-9.56115
-9.56762
-9.57533
-9.58408
-9.5937
-9.60401
-9.61486
-9.62608
-9.63755
-9.64915
-9.66079
-9.67238
-9.68386
-9.69517
-9.70627
-9.71714
-9.72776
-9.73812
-9.74821
-9.75804
-9.76762
-9.77695
-9.78606
-9.79497
-9.80368
-9.81223
-9.82064
-9.82894
-9.83713
-9.84525
-9.85392
-9.8628
-9.86254
-9.58181
-9.57591
-9.57227
-9.57071
-9.57067
-9.57213
-9.57505
-9.57935
-9.58488
-9.59151
-9.59909
-9.60747
-9.61649
-9.62602
-9.63593
-9.6461
-9.65642
-9.6668
-9.67717
-9.68746
-9.69762
-9.70762
-9.71743
-9.72701
-9.73637
-9.7455
-9.75439
-9.76305
-9.77149
-9.77973
-9.78776
-9.79562
-9.80331
-9.81086
-9.81829
-9.82559
-9.83279
-9.8405
-9.84828
-9.8469
-9.59906
-9.59389
-9.59065
-9.58922
-9.58909
-9.59026
-9.5927
-9.59634
-9.60107
-9.60678
-9.61334
-9.62062
-9.6285
-9.63685
-9.64557
-9.65453
-9.66366
-9.67287
-9.68208
-9.69124
-9.7003
-9.70922
-9.71797
-9.72654
-9.7349
-9.74305
-9.75099
-9.75872
-9.76625
-9.77358
-9.78073
-9.7877
-9.7945
-9.80117
-9.8077
-9.81408
-9.82035
-9.82708
-9.83373
-9.83126
-9.61512
-9.61057
-9.60771
-9.60639
-9.6062
-9.60714
-9.60918
-9.61227
-9.61632
-9.62123
-9.62689
-9.63321
-9.64007
-9.64736
-9.65498
-9.66285
-9.67087
-9.67897
-9.68708
-9.69516
-9.70316
-9.71103
-9.71876
-9.72631
-9.73369
-9.74087
-9.74786
-9.75465
-9.76125
-9.76766
-9.77389
-9.77996
-9.78586
-9.79162
-9.79723
-9.80268
-9.80799
-9.81373
-9.81925
-9.81572
-9.63016
-9.62615
-9.62361
-9.6224
-9.62218
-9.62292
-9.62463
-9.62725
-9.63071
-9.63492
-9.63981
-9.64527
-9.65121
-9.65754
-9.66418
-9.67103
-9.67802
-9.68509
-9.69217
-9.69922
-9.70619
-9.71305
-9.71977
-9.72634
-9.73273
-9.73895
-9.74498
-9.75083
-9.75649
-9.76198
-9.76729
-9.77243
-9.77742
-9.78225
-9.78693
-9.79144
-9.79579
-9.80054
-9.80494
-9.80036
-9.6443
-9.64077
-9.63851
-9.63742
-9.63717
-9.63776
-9.63918
-9.6414
-9.64435
-9.64795
-9.65215
-9.65685
-9.66197
-9.66744
-9.67316
-9.67908
-9.68512
-9.69121
-9.69732
-9.70338
-9.70937
-9.71525
-9.721
-9.7266
-9.73203
-9.73729
-9.74237
-9.74727
-9.752
-9.75655
-9.76094
-9.76515
-9.76921
-9.77311
-9.77686
-9.78041
-9.78381
-9.78757
-9.79085
-9.78526
-9.65768
-9.65457
-9.65256
-9.65157
-9.6513
-9.65176
-9.65294
-9.65481
-9.65732
-9.6604
-9.66398
-9.668
-9.67239
-9.67706
-9.68196
-9.68701
-9.69216
-9.69734
-9.70253
-9.70766
-9.7127
-9.71764
-9.72244
-9.72708
-9.73157
-9.73588
-9.74002
-9.74399
-9.74778
-9.7514
-9.75485
-9.75814
-9.76127
-9.76424
-9.76704
-9.76965
-9.77209
-9.77486
-9.77706
-9.77049
-9.6704
-9.66766
-9.66587
-9.66496
-9.66469
-9.66504
-9.66602
-9.66759
-9.66971
-9.67232
-9.67536
-9.67877
-9.68249
-9.68645
-9.69058
-9.69484
-9.69915
-9.70349
-9.70779
-9.71203
-9.71617
-9.72019
-9.72407
-9.72779
-9.73135
-9.73473
-9.73794
-9.74097
-9.74383
-9.74652
-9.74905
-9.75141
-9.7536
-9.75564
-9.75751
-9.75917
-9.76066
-9.76247
-9.76359
-9.7561
-9.68256
-9.68013
-9.67854
-9.67771
-9.67743
-9.67769
-9.6785
-9.67982
-9.6816
-9.6838
-9.68636
-9.68922
-9.69234
-9.69564
-9.69907
-9.70258
-9.70612
-9.70965
-9.71312
-9.71651
-9.71978
-9.72291
-9.7259
-9.72872
-9.73136
-9.73383
-9.73612
-9.73823
-9.74017
-9.74193
-9.74353
-9.74496
-9.74623
-9.74734
-9.74828
-9.749
-9.74956
-9.75041
-9.75049
-9.7421
-9.69423
-9.69207
-9.69064
-9.68989
-9.68961
-9.6898
-9.69047
-9.69156
-9.69305
-9.69489
-9.69702
-9.6994
-9.70196
-9.70466
-9.70745
-9.71027
-9.71308
-9.71584
-9.71852
-9.72109
-9.72353
-9.72581
-9.72792
-9.72986
-9.73161
-9.73318
-9.73456
-9.73576
-9.73678
-9.73762
-9.7383
-9.73881
-9.73916
-9.73935
-9.73936
-9.73917
-9.7388
-9.73871
-9.73778
-9.72853
-9.70549
-9.70355
-9.70226
-9.70157
-9.7013
-9.70145
-9.70199
-9.70291
-9.70415
-9.70567
-9.70742
-9.70936
-9.71142
-9.71357
-9.71575
-9.71793
-9.72005
-9.72209
-9.72402
-9.72581
-9.72743
-9.72889
-9.73015
-9.73122
-9.73209
-9.73277
-9.73326
-9.73355
-9.73366
-9.7336
-9.73336
-9.73296
-9.73239
-9.73166
-9.73077
-9.72966
-9.72838
-9.72738
-9.72546
-9.71538
-9.71639
-9.71462
-9.71345
-9.71282
-9.71258
-9.71269
-9.71315
-9.71392
-9.71495
-9.71619
-9.71761
-9.71915
-9.72077
-9.72241
-9.72403
-9.7256
-9.72707
-9.72843
-9.72963
-9.73066
-9.73151
-9.73215
-9.73258
-9.73281
-9.73282
-9.73262
-9.73221
-9.73161
-9.73082
-9.72985
-9.7287
-9.72739
-9.72592
-9.72429
-9.72249
-9.72048
-9.71831
-9.71642
-9.71354
-9.70266
-9.72696
-9.72532
-9.72425
-9.72369
-9.72348
-9.72359
-9.72399
-9.72465
-9.72551
-9.72653
-9.72766
-9.72884
-9.73005
-9.73122
-9.73232
-9.73332
-9.73418
-9.73488
-9.73538
-9.73569
-9.73577
-9.73562
-9.73524
-9.73463
-9.73378
-9.73272
-9.73143
-9.72994
-9.72825
-9.72638
-9.72433
-9.72211
-9.71974
-9.71721
-9.71451
-9.71162
-9.70859
-9.70582
-9.702
-9.69036
-9.73724
-9.73567
-9.73468
-9.7342
-9.73405
-9.73419
-9.73458
-9.73517
-9.73591
-9.73674
-9.73762
-9.7385
-9.73933
-9.74007
-9.74069
-9.74115
-9.74142
-9.74148
-9.74131
-9.7409
-9.74024
-9.73931
-9.73813
-9.73669
-9.735
-9.73307
-9.73091
-9.72853
-9.72595
-9.72317
-9.72022
-9.7171
-9.71383
-9.71041
-9.70683
-9.70307
-9.69918
-9.69556
-9.69085
-9.67846
-9.74721
-9.74565
-9.74474
-9.74436
-9.74432
-9.74454
-9.74496
-9.74553
-9.74619
-9.74688
-9.74755
-9.74815
-9.74865
-9.74899
-9.74915
-9.7491
-9.74881
-9.74826
-9.74744
-9.74633
-9.74493
-9.74324
-9.74127
-9.73901
-9.73647
-9.73368
-9.73064
-9.72738
-9.7239
-9.72022
-9.71637
-9.71235
-9.70818
-9.70387
-9.69942
-9.6948
-9.69007
-9.68564
-9.68007
-9.66698
-9.75679
-9.75519
-9.75436
-9.75415
-9.75426
-9.75461
-9.75513
-9.75573
-9.75636
-9.75695
-9.75746
-9.75783
-9.75803
-9.75801
-9.75775
-9.75721
-9.75638
-9.75524
-9.75378
-9.75199
-9.74987
-9.74742
-9.74466
-9.74158
-9.73821
-9.73456
-9.73065
-9.72649
-9.72211
-9.71754
-9.71278
-9.70786
-9.7028
-9.6976
-9.69229
-9.68683
-9.6813
-9.67608
-9.6697
-9.65595
-9.76595
-9.76431
-9.76366
-9.76372
-9.7641
-9.76468
-9.76536
-9.76607
-9.76673
-9.76728
-9.76767
-9.76785
-9.76778
-9.76743
-9.76677
-9.76577
-9.76441
-9.76269
-9.76059
-9.75812
-9.75527
-9.75206
-9.7485
-9.74459
-9.74036
-9.73583
-9.73103
-9.72596
-9.72066
-9.71516
-9.70948
-9.70363
-9.69765
-9.69156
-9.68536
-9.67905
-9.67272
-9.66674
-9.65958
-9.64518
-9.77449
-9.77318
-9.77305
-9.77364
-9.77448
-9.77544
-9.77641
-9.77731
-9.77807
-9.77863
-9.77893
-9.77895
-9.77863
-9.77794
-9.77686
-9.77537
-9.77345
-9.7711
-9.76832
-9.7651
-9.76146
-9.7574
-9.75296
-9.74813
-9.74296
-9.73746
-9.73166
-9.72558
-9.71927
-9.71274
-9.70603
-9.69916
-9.69216
-9.68507
-9.67791
-9.67068
-9.6635
-9.65672
-9.6488
-9.63416
-9.78022
-9.77962
-9.78025
-9.78145
-9.78277
-9.78407
-9.78528
-9.78633
-9.78715
-9.78768
-9.78789
-9.78772
-9.78714
-9.78613
-9.78465
-9.7827
-9.78027
-9.77734
-9.77393
-9.77004
-9.76568
-9.76088
-9.75565
-9.75003
-9.74403
-9.73769
-9.73103
-9.7241
-9.71693
-9.70954
-9.70197
-9.69425
-9.68642
-9.67851
-9.67056
-9.66258
-9.65474
-9.64729
-9.63866
-9.62589
)
;

boundaryField
{
    movingWall
    {
        type            zeroGradient;
    }
    bottomWall
    {
        type            zeroGradient;
    }
    leftSide
    {
        type            zeroGradient;
    }
    rightSide
    {
        type            zeroGradient;
    }
    frontAndBack
    {
        type            empty;
    }
}


// ************************************************************************* //
