/*--------------------------------*- C++ -*----------------------------------*\
| =========                 |                                                 |
| \\      /  F ield         | OpenFOAM: The Open Source CFD Toolbox           |
|  \\    /   O peration     | Version:  v2012                                 |
|   \\  /    A nd           | Website:  www.openfoam.com                      |
|    \\/     M anipulation  |                                                 |
\*---------------------------------------------------------------------------*/
FoamFile
{
    version     2.0;
    format      ascii;
    class       surfaceScalarField;
    location    "0.7";
    object      phi;
}
// * * * * * * * * * * * * * * * * * * * * * * * * * * * * * * * * * * * * * //

dimensions      [0 3 -1 0 0 0 0];
oriented        oriented;


internalField   nonuniform List<scalar> 
3120
(
1.84441e-05
6.55591e-06
1.28427e-05
5.60136e-06
9.35147e-06
3.49125e-06
7.17666e-06
2.17482e-06
5.77466e-06
1.40199e-06
4.83187e-06
9.42798e-07
4.16643e-06
6.65438e-07
3.67426e-06
4.92172e-07
3.29551e-06
3.78747e-07
2.99469e-06
3.00822e-07
2.74975e-06
2.44937e-07
2.54635e-06
2.03395e-07
2.37476e-06
1.71592e-07
2.22811e-06
1.46649e-07
2.10143e-06
1.26685e-07
1.991e-06
1.1043e-07
1.89401e-06
9.6993e-08
1.80827e-06
8.57349e-08
1.73208e-06
7.61862e-08
1.66409e-06
6.7995e-08
1.6032e-06
6.08931e-08
1.54852e-06
5.46732e-08
1.49935e-06
4.91728e-08
1.45509e-06
4.42634e-08
1.41524e-06
3.98428e-08
1.37941e-06
3.58293e-08
1.34726e-06
3.21587e-08
1.31847e-06
2.87813e-08
1.29281e-06
2.56615e-08
1.27004e-06
2.27774e-08
1.24991e-06
2.01222e-08
1.23221e-06
1.77069e-08
1.21664e-06
1.55647e-08
1.20288e-06
1.37582e-08
1.1905e-06
1.23878e-08
1.1789e-06
1.15963e-08
1.1673e-06
1.15986e-08
1.15451e-06
1.27953e-08
1.13903e-06
1.54783e-08
1.76111e-08
2.55027e-05
6.0532e-06
2.31417e-05
7.9624e-06
1.99922e-05
6.64073e-06
1.71183e-05
5.04873e-06
1.47611e-05
3.75917e-06
1.28933e-05
2.81056e-06
1.14197e-05
2.13907e-06
1.02463e-05
1.66561e-06
9.29836e-06
1.32666e-06
8.52064e-06
1.07855e-06
7.87297e-06
8.92605e-07
7.3263e-06
7.50066e-07
6.85937e-06
6.38517e-07
6.45643e-06
5.49592e-07
6.10559e-06
4.77528e-07
5.79776e-06
4.18261e-07
5.52588e-06
3.68868e-07
5.28442e-06
3.27201e-07
5.06895e-06
2.91655e-07
4.87593e-06
2.61011e-07
4.7025e-06
2.3433e-07
4.54629e-06
2.10878e-07
4.40539e-06
1.90078e-07
4.27818e-06
1.71468e-07
4.16334e-06
1.54681e-07
4.05975e-06
1.39422e-07
3.96645e-06
1.2546e-07
3.88261e-06
1.12615e-07
3.80752e-06
1.00757e-07
3.74049e-06
8.98062e-08
3.68088e-06
7.97321e-08
3.62802e-06
7.05633e-08
3.58119e-06
6.23941e-08
3.53955e-06
5.53974e-08
3.50211e-06
4.98326e-08
3.46766e-06
4.60417e-08
3.43482e-06
4.44453e-08
3.40211e-06
4.55024e-08
3.36863e-06
4.89572e-08
5.19933e-08
2.63558e-05
4.69741e-06
2.63127e-05
8.0055e-06
2.48785e-05
8.07491e-06
2.28662e-05
7.06104e-06
2.07798e-05
5.84554e-06
1.88481e-05
4.74227e-06
1.71488e-05
3.83843e-06
1.56867e-05
3.12772e-06
1.44377e-05
2.57564e-06
1.33701e-05
2.14611e-06
1.24536e-05
1.80915e-06
1.16618e-05
1.5418e-06
1.09734e-05
1.327e-06
1.03707e-05
1.15223e-06
9.83994e-06
1.0083e-06
9.36984e-06
8.88365e-07
8.95137e-06
7.87336e-07
8.57722e-06
7.01344e-07
8.24145e-06
6.27428e-07
7.93917e-06
5.63295e-07
7.66635e-06
5.07148e-07
7.41966e-06
4.57563e-07
7.19634e-06
4.13407e-07
6.99404e-06
3.73768e-07
6.81081e-06
3.37911e-07
6.64498e-06
3.05248e-07
6.49513e-06
2.75307e-07
6.36002e-06
2.47726e-07
6.23854e-06
2.22238e-07
6.12968e-06
1.98673e-07
6.03245e-06
1.7696e-07
5.94588e-06
1.57133e-07
5.86893e-06
1.39343e-07
5.80046e-06
1.23865e-07
5.73919e-06
1.111e-07
5.68369e-06
1.01541e-07
5.63243e-06
9.57107e-08
5.58396e-06
9.39685e-08
5.53731e-06
9.56124e-08
9.74793e-08
2.61648e-05
3.5326e-06
2.69818e-05
7.18852e-06
2.67716e-05
8.2851e-06
2.57893e-05
8.04332e-06
2.4396e-05
7.2389e-06
2.28569e-05
6.28132e-06
2.13321e-05
5.36328e-06
1.99025e-05
4.55727e-06
1.86006e-05
3.87753e-06
1.74324e-05
3.31435e-06
1.63911e-05
2.85047e-06
1.54648e-05
2.46806e-06
1.46404e-05
2.15138e-06
1.39052e-05
1.88741e-06
1.32478e-05
1.66569e-06
1.26583e-05
1.47796e-06
1.21279e-05
1.31769e-06
1.16495e-05
1.17973e-06
1.12169e-05
1.06002e-06
1.08249e-05
9.55298e-07
1.04691e-05
8.62977e-07
1.01457e-05
7.80956e-07
9.85158e-06
7.07534e-07
9.58401e-06
6.4133e-07
9.34071e-06
5.81215e-07
9.11968e-06
5.26277e-07
8.91921e-06
4.7578e-07
8.73778e-06
4.29153e-07
8.57405e-06
3.8597e-07
8.42677e-06
3.45953e-07
8.29476e-06
3.0897e-07
8.17685e-06
2.75043e-07
8.07183e-06
2.4436e-07
7.97842e-06
2.17274e-07
7.89523e-06
1.9429e-07
7.82076e-06
1.76011e-07
7.75345e-06
1.6303e-07
7.69175e-06
1.55667e-07
7.63424e-06
1.53118e-07
1.52439e-07
2.58465e-05
2.68613e-06
2.68506e-05
6.18443e-06
2.7287e-05
7.84867e-06
2.70756e-05
8.25475e-06
2.63692e-05
7.94529e-06
2.53569e-05
7.29357e-06
2.41952e-05
6.525e-06
2.2992e-05
5.76051e-06
2.18132e-05
5.05631e-06
2.06949e-05
4.43263e-06
1.9654e-05
3.89143e-06
1.86956e-05
3.42639e-06
1.78188e-05
3.0282e-06
1.70191e-05
2.6871e-06
1.62907e-05
2.39411e-06
1.56273e-05
2.14135e-06
1.50228e-05
1.92216e-06
1.44716e-05
1.73097e-06
1.39684e-05
1.56318e-06
1.35087e-05
1.41497e-06
1.30885e-05
1.2832e-06
1.27042e-05
1.16528e-06
1.23527e-05
1.05905e-06
1.20313e-05
9.62734e-07
1.17376e-05
8.74858e-07
1.14697e-05
7.94214e-07
1.12257e-05
7.19819e-07
1.10039e-05
6.50899e-07
1.0803e-05
5.86872e-07
1.06216e-05
5.27346e-07
1.04585e-05
4.7212e-07
1.03123e-05
4.21192e-07
1.01819e-05
3.74766e-07
1.00659e-05
3.33249e-07
9.96299e-06
2.97231e-07
9.87158e-06
2.6742e-07
9.7901e-06
2.44516e-07
9.71682e-06
2.2895e-07
9.64978e-06
2.20149e-07
2.15842e-07
2.55903e-05
2.09579e-06
2.65263e-05
5.24846e-06
2.72314e-05
7.14355e-06
2.74932e-05
7.99293e-06
2.73154e-05
8.12313e-06
2.67912e-05
7.81777e-06
2.60327e-05
7.28352e-06
2.51378e-05
6.6554e-06
2.41804e-05
6.01367e-06
2.32114e-05
5.40162e-06
2.22633e-05
4.83956e-06
2.13553e-05
4.33442e-06
2.04976e-05
3.88585e-06
1.96948e-05
3.48994e-06
1.89476e-05
3.14131e-06
1.82547e-05
2.83421e-06
1.76137e-05
2.56315e-06
1.70216e-05
2.32313e-06
1.6475e-05
2.10973e-06
1.59709e-05
1.91912e-06
1.55061e-05
1.74799e-06
1.50778e-05
1.59353e-06
1.46835e-05
1.45336e-06
1.43208e-05
1.32543e-06
1.39876e-05
1.20805e-06
1.36821e-05
1.09978e-06
1.34025e-05
9.99444e-07
1.31472e-05
9.06114e-07
1.2915e-05
8.19073e-07
1.27046e-05
7.37827e-07
1.25146e-05
6.62113e-07
1.23439e-05
5.91901e-07
1.21912e-05
5.27401e-07
1.20554e-05
4.6907e-07
1.19351e-05
4.17581e-07
1.18287e-05
3.73768e-07
1.17347e-05
3.38514e-07
1.16511e-05
3.12529e-07
1.15755e-05
2.95742e-07
2.86858e-07
2.54156e-05
1.68018e-06
2.62122e-05
4.45186e-06
2.69798e-05
6.37594e-06
2.74881e-05
7.48465e-06
2.76624e-05
7.94883e-06
2.75211e-05
7.95903e-06
2.71249e-05
7.67974e-06
2.65444e-05
7.23589e-06
2.5844e-05
6.71415e-06
2.50753e-05
6.17026e-06
2.42772e-05
5.63766e-06
2.3477e-05
5.13466e-06
2.26929e-05
4.6699e-06
2.19368e-05
4.24612e-06
2.12154e-05
3.86266e-06
2.05325e-05
3.51707e-06
1.98897e-05
3.20604e-06
1.92868e-05
2.92597e-06
1.87232e-05
2.67334e-06
1.81975e-05
2.44483e-06
1.77081e-05
2.23741e-06
1.72532e-05
2.04839e-06
1.68312e-05
1.87539e-06
1.64403e-05
1.71632e-06
1.6079e-05
1.56938e-06
1.57457e-05
1.43305e-06
1.54391e-05
1.30605e-06
1.51579e-05
1.18734e-06
1.49008e-05
1.07612e-06
1.46668e-05
9.71825e-07
1.44548e-05
8.74152e-07
1.42636e-05
7.83052e-07
1.40923e-05
6.98752e-07
1.39396e-05
6.2176e-07
1.38043e-05
5.5285e-07
1.36851e-05
4.93026e-07
1.35801e-05
4.43437e-07
1.34874e-05
4.05217e-07
1.34042e-05
3.79012e-07
3.64729e-07
2.53011e-05
1.37903e-06
2.59573e-05
3.79567e-06
2.66905e-05
5.64277e-06
2.72999e-05
6.87525e-06
2.76826e-05
7.56611e-06
2.78111e-05
7.83054e-06
2.7704e-05
7.78687e-06
2.74019e-05
7.53801e-06
2.69515e-05
7.16451e-06
2.63968e-05
6.72495e-06
2.5775e-05
6.25945e-06
2.51157e-05
5.79402e-06
2.44411e-05
5.34447e-06
2.37676e-05
4.91961e-06
2.31067e-05
4.52362e-06
2.2466e-05
4.15771e-06
2.18507e-05
3.82131e-06
2.12639e-05
3.51281e-06
2.07072e-05
3.23008e-06
2.01812e-05
2.97078e-06
1.96861e-05
2.73254e-06
1.92214e-05
2.51309e-06
1.87865e-05
2.31032e-06
1.83805e-05
2.12231e-06
1.80025e-05
1.94735e-06
1.76516e-05
1.78392e-06
1.73269e-05
1.63076e-06
1.70275e-05
1.48679e-06
1.67524e-05
1.35121e-06
1.65008e-05
1.22342e-06
1.62718e-05
1.10311e-06
1.60646e-05
9.90235e-07
1.58783e-05
8.85054e-07
1.57119e-05
7.88149e-07
1.55644e-05
7.00425e-07
1.54343e-05
6.231e-07
1.53201e-05
5.57672e-07
1.52195e-05
5.05816e-07
1.51294e-05
4.69059e-07
4.48696e-07
2.52253e-05
1.15369e-06
2.57613e-05
3.25975e-06
2.64224e-05
4.98167e-06
2.70494e-05
6.24823e-06
2.75388e-05
7.07669e-06
2.78408e-05
7.52858e-06
2.79455e-05
7.68209e-06
2.78686e-05
7.61495e-06
2.7638e-05
7.39509e-06
2.72859e-05
7.07704e-06
2.68433e-05
6.70204e-06
2.63376e-05
6.29977e-06
2.57914e-05
5.89066e-06
2.52229e-05
5.48811e-06
2.46461e-05
5.10042e-06
2.40715e-05
4.73225e-06
2.3507e-05
4.38584e-06
2.2958e-05
4.06178e-06
2.24285e-05
3.75961e-06
2.1921e-05
3.47827e-06
2.14372e-05
3.21633e-06
2.09781e-05
2.9722e-06
2.05442e-05
2.74427e-06
2.01355e-05
2.53096e-06
1.97521e-05
2.3308e-06
1.93935e-05
2.14245e-06
1.90595e-05
1.96474e-06
1.87497e-05
1.79667e-06
1.84634e-05
1.63746e-06
1.82003e-05
1.48658e-06
1.79597e-05
1.34372e-06
1.7741e-05
1.20888e-06
1.75437e-05
1.0824e-06
1.73669e-05
9.6495e-07
1.72097e-05
8.57599e-07
1.7071e-05
7.61829e-07
1.69491e-05
6.7955e-07
1.68418e-05
6.13077e-07
1.67459e-05
5.64939e-07
5.37974e-07
2.51736e-05
9.80102e-07
2.56122e-05
2.82114e-06
2.61923e-05
4.40153e-06
2.67933e-05
5.64723e-06
2.73234e-05
6.54659e-06
2.77259e-05
7.12616e-06
2.79749e-05
7.43306e-06
2.80679e-05
7.52194e-06
2.8017e-05
7.44596e-06
2.78422e-05
7.25185e-06
2.75663e-05
6.97799e-06
2.72117e-05
6.65435e-06
2.6799e-05
6.3034e-06
2.63457e-05
5.94134e-06
2.58667e-05
5.57943e-06
2.53738e-05
5.22516e-06
2.48764e-05
4.88325e-06
2.43818e-05
4.55639e-06
2.38955e-05
4.24585e-06
2.34219e-05
3.95193e-06
2.29639e-05
3.67432e-06
2.25238e-05
3.41228e-06
2.21032e-05
3.16484e-06
2.17033e-05
2.93093e-06
2.13246e-05
2.70943e-06
2.09678e-05
2.49931e-06
2.06329e-05
2.29958e-06
2.03202e-05
2.10942e-06
2.00295e-05
1.92815e-06
1.97608e-05
1.75532e-06
1.95138e-05
1.59072e-06
1.92882e-05
1.43443e-06
1.90838e-05
1.28686e-06
1.88999e-05
1.14884e-06
1.87358e-05
1.02162e-06
1.85907e-05
9.07003e-07
1.84629e-05
8.07354e-07
1.83502e-05
7.25703e-07
1.82495e-05
6.65665e-07
6.31743e-07
2.5137e-05
8.4308e-07
2.54983e-05
2.45981e-06
2.60011e-05
3.89873e-06
2.6556e-05
5.09236e-06
2.70867e-05
6.01593e-06
2.75382e-05
6.67468e-06
2.78776e-05
7.09361e-06
2.80911e-05
7.30844e-06
2.81788e-05
7.35822e-06
2.81502e-05
7.28048e-06
2.80197e-05
7.10849e-06
2.7804e-05
6.87011e-06
2.75197e-05
6.58769e-06
2.71824e-05
6.27855e-06
2.68062e-05
5.95567e-06
2.64029e-05
5.62849e-06
2.59825e-05
5.30364e-06
2.55533e-05
4.98559e-06
2.5122e-05
4.67718e-06
2.46938e-05
4.38007e-06
2.42731e-05
4.09504e-06
2.38631e-05
3.82227e-06
2.34664e-05
3.56154e-06
2.3085e-05
3.31236e-06
2.27203e-05
3.07409e-06
2.23736e-05
2.84606e-06
2.20456e-05
2.62757e-06
2.1737e-05
2.41802e-06
2.14482e-05
2.21693e-06
2.11796e-05
2.02397e-06
2.09312e-05
1.83907e-06
2.07032e-05
1.66243e-06
2.04955e-05
1.49459e-06
2.03078e-05
1.33653e-06
2.01396e-05
1.18977e-06
1.99902e-05
1.05641e-06
1.98582e-05
9.39344e-07
1.97416e-05
8.4236e-07
1.9637e-05
7.70216e-07
7.29163e-07
2.51103e-05
7.32762e-07
2.54104e-05
2.15975e-06
2.5844e-05
3.46508e-06
2.63457e-05
4.5907e-06
2.68542e-05
5.50741e-06
2.73205e-05
6.20844e-06
2.77101e-05
6.70393e-06
2.80034e-05
7.0152e-06
2.81924e-05
7.16922e-06
2.82783e-05
7.19451e-06
2.82685e-05
7.1183e-06
2.81737e-05
6.96493e-06
2.80063e-05
6.75513e-06
2.77789e-05
6.50595e-06
2.75036e-05
6.23093e-06
2.71915e-05
5.94057e-06
2.68524e-05
5.64276e-06
2.64947e-05
5.34331e-06
2.61255e-05
5.04635e-06
2.57509e-05
4.75467e-06
2.53759e-05
4.47011e-06
2.50044e-05
4.19372e-06
2.46399e-05
3.92603e-06
2.42851e-05
3.66719e-06
2.39421e-05
3.41708e-06
2.36127e-05
3.17543e-06
2.32984e-05
2.94192e-06
2.30002e-05
2.71621e-06
2.27191e-05
2.49804e-06
2.24557e-05
2.28731e-06
2.22107e-05
2.08407e-06
2.19845e-05
1.88871e-06
2.17771e-05
1.70192e-06
2.15888e-05
1.52489e-06
2.14192e-05
1.35938e-06
2.12677e-05
1.20787e-06
2.11332e-05
1.07379e-06
2.10139e-05
9.6171e-07
2.09065e-05
8.77559e-07
8.29379e-07
2.50902e-05
6.42515e-07
2.53415e-05
1.90852e-06
2.57152e-05
3.09136e-06
2.61634e-05
4.14249e-06
2.66381e-05
5.03272e-06
2.70974e-05
5.74918e-06
2.75087e-05
6.29261e-06
2.78499e-05
6.67395e-06
2.81086e-05
6.91055e-06
2.82801e-05
7.02295e-06
2.83661e-05
7.03233e-06
2.83721e-05
6.95893e-06
2.83063e-05
6.82096e-06
2.8178e-05
6.63419e-06
2.79971e-05
6.41182e-06
2.77731e-05
6.1646e-06
2.75148e-05
5.90106e-06
2.72303e-05
5.62783e-06
2.69267e-05
5.34997e-06
2.66102e-05
5.07118e-06
2.62861e-05
4.79416e-06
2.59591e-05
4.52076e-06
2.56329e-05
4.2522e-06
2.53109e-05
3.98924e-06
2.49957e-05
3.73228e-06
2.46896e-05
3.48151e-06
2.43945e-05
3.23696e-06
2.41121e-05
2.99862e-06
2.38437e-05
2.7665e-06
2.35903e-05
2.5407e-06
2.33528e-05
2.32151e-06
2.31321e-05
2.10948e-06
2.29285e-05
1.9055e-06
2.27424e-05
1.71099e-06
2.25738e-05
1.52797e-06
2.24223e-05
1.35933e-06
2.22871e-05
1.20903e-06
2.21664e-05
1.08244e-06
2.20573e-05
9.8667e-07
9.31544e-07
2.50748e-05
5.67718e-07
2.52868e-05
1.69656e-06
2.56092e-05
2.7689e-06
2.60071e-05
3.74465e-06
2.6443e-05
4.5968e-06
2.68822e-05
5.30994e-06
2.72956e-05
5.87919e-06
2.76612e-05
6.3084e-06
2.79641e-05
6.60763e-06
2.81963e-05
6.7908e-06
2.8355e-05
6.87365e-06
2.84417e-05
6.87222e-06
2.84608e-05
6.80183e-06
2.84186e-05
6.67638e-06
2.83224e-05
6.50805e-06
2.81798e-05
6.30721e-06
2.79983e-05
6.08249e-06
2.77853e-05
5.84088e-06
2.75473e-05
5.58797e-06
2.72904e-05
5.3281e-06
2.70199e-05
5.06461e-06
2.67407e-05
4.80001e-06
2.64568e-05
4.53611e-06
2.61718e-05
4.27422e-06
2.58888e-05
4.01523e-06
2.56106e-05
3.75976e-06
2.53393e-05
3.50821e-06
2.5077e-05
3.26091e-06
2.48254e-05
3.01814e-06
2.45858e-05
2.78026e-06
2.43596e-05
2.54776e-06
2.41477e-05
2.32142e-06
2.39508e-05
2.10234e-06
2.37696e-05
1.89218e-06
2.36043e-05
1.69326e-06
2.34548e-05
1.50886e-06
2.33203e-05
1.34349e-06
2.31995e-05
1.2033e-06
2.30896e-05
1.09656e-06
1.03483e-06
2.50627e-05
5.05056e-07
2.52428e-05
1.51647e-06
2.55216e-05
2.49e-06
2.58735e-05
3.39276e-06
2.62697e-05
4.20068e-06
2.66817e-05
4.89787e-06
2.70845e-05
5.47645e-06
2.74573e-05
5.9356e-06
2.77848e-05
6.28011e-06
2.80569e-05
6.51868e-06
2.82682e-05
6.6624e-06
2.84169e-05
6.72349e-06
2.85045e-05
6.71427e-06
2.85343e-05
6.6465e-06
2.85114e-05
6.53096e-06
2.84414e-05
6.37721e-06
2.83304e-05
6.19349e-06
2.81845e-05
5.98679e-06
2.80096e-05
5.76287e-06
2.78113e-05
5.52644e-06
2.75946e-05
5.28126e-06
2.73643e-05
5.0303e-06
2.71246e-05
4.77585e-06
2.68791e-05
4.51966e-06
2.66313e-05
4.26307e-06
2.6384e-05
4.00707e-06
2.61398e-05
3.75244e-06
2.59009e-05
3.4998e-06
2.56693e-05
3.24973e-06
2.54467e-05
3.00283e-06
2.52346e-05
2.75984e-06
2.50343e-05
2.52175e-06
2.48467e-05
2.2899e-06
2.46727e-05
2.06618e-06
2.45127e-05
1.85324e-06
2.43669e-05
1.65474e-06
2.42346e-05
1.47573e-06
2.41148e-05
1.32312e-06
2.40051e-05
1.20628e-06
1.13844e-06
2.5053e-05
4.52086e-07
2.52069e-05
1.36251e-06
2.54488e-05
2.24812e-06
2.57596e-05
3.08198e-06
2.61171e-05
3.84314e-06
2.64986e-05
4.51636e-06
2.68827e-05
5.09234e-06
2.72509e-05
5.56743e-06
2.75883e-05
5.94272e-06
2.7884e-05
6.22299e-06
2.81308e-05
6.41555e-06
2.83251e-05
6.52926e-06
2.84657e-05
6.57366e-06
2.85538e-05
6.55833e-06
2.85923e-05
6.49246e-06
2.8585e-05
6.38451e-06
2.85365e-05
6.24204e-06
2.84516e-05
6.0717e-06
2.83353e-05
5.87916e-06
2.81925e-05
5.66922e-06
2.80279e-05
5.44586e-06
2.78459e-05
5.21232e-06
2.76505e-05
4.97124e-06
2.74455e-05
4.72472e-06
2.72341e-05
4.47442e-06
2.70195e-05
4.22169e-06
2.68043e-05
3.9676e-06
2.65911e-05
3.71308e-06
2.63818e-05
3.45896e-06
2.61786e-05
3.2061e-06
2.59829e-05
2.95547e-06
2.57964e-05
2.70828e-06
2.56202e-05
2.46611e-06
2.54553e-05
2.23111e-06
2.53023e-05
2.00622e-06
2.51615e-05
1.79549e-06
2.50328e-05
1.6045e-06
2.4915e-05
1.44086e-06
2.48063e-05
1.31498e-06
1.24163e-06
2.50451e-05
4.06969e-07
2.51775e-05
1.23015e-06
2.53878e-05
2.03775e-06
2.56622e-05
2.80766e-06
2.59835e-05
3.52187e-06
2.63335e-05
4.16634e-06
2.66944e-05
4.73142e-06
2.705e-05
5.21182e-06
2.73865e-05
5.60619e-06
2.76931e-05
5.91642e-06
2.79618e-05
6.14688e-06
2.81874e-05
6.30363e-06
2.83673e-05
6.39374e-06
2.85009e-05
6.42476e-06
2.85891e-05
6.40421e-06
2.86343e-05
6.33934e-06
2.86395e-05
6.23685e-06
2.86084e-05
6.10281e-06
2.8545e-05
5.9426e-06
2.84533e-05
5.76088e-06
2.83375e-05
5.56165e-06
2.82015e-05
5.34829e-06
2.80492e-05
5.12361e-06
2.78839e-05
4.88996e-06
2.77091e-05
4.64924e-06
2.75277e-05
4.40306e-06
2.73426e-05
4.15277e-06
2.71561e-05
3.89953e-06
2.69707e-05
3.64442e-06
2.67882e-05
3.38853e-06
2.66106e-05
3.13305e-06
2.64395e-05
2.87941e-06
2.62762e-05
2.62942e-06
2.61218e-05
2.38549e-06
2.59772e-05
2.15083e-06
2.58428e-05
1.92989e-06
2.57186e-05
1.72871e-06
2.56039e-05
1.55559e-06
2.5497e-05
1.42187e-06
1.34372e-06
2.50387e-05
3.68292e-07
2.5153e-05
1.11582e-06
2.53365e-05
1.85427e-06
2.55787e-05
2.56546e-06
2.58665e-05
3.23401e-06
2.61856e-05
3.84732e-06
2.6521e-05
4.39595e-06
2.6859e-05
4.87382e-06
2.71872e-05
5.27805e-06
2.74951e-05
5.6085e-06
2.77747e-05
5.8673e-06
2.802e-05
6.05826e-06
2.82274e-05
6.18638e-06
2.83948e-05
6.25733e-06
2.85219e-05
6.2771e-06
2.86096e-05
6.25167e-06
2.86596e-05
6.1868e-06
2.86746e-05
6.08784e-06
2.86575e-05
5.95972e-06
2.86116e-05
5.80681e-06
2.85402e-05
5.63297e-06
2.8447e-05
5.44155e-06
2.83352e-05
5.23544e-06
2.8208e-05
5.01709e-06
2.80687e-05
4.78859e-06
2.792e-05
4.55172e-06
2.77648e-05
4.30802e-06
2.76054e-05
4.05886e-06
2.74443e-05
3.80554e-06
2.72835e-05
3.54934e-06
2.71249e-05
3.29165e-06
2.69702e-05
3.03412e-06
2.68208e-05
2.77877e-06
2.66781e-05
2.52825e-06
2.65429e-05
2.28606e-06
2.64158e-05
2.05698e-06
2.6297e-05
1.84751e-06
2.6186e-05
1.66655e-06
2.60816e-05
1.52628e-06
1.44411e-06
2.50333e-05
3.34959e-07
2.51325e-05
1.01665e-06
2.52929e-05
1.69384e-06
2.55069e-05
2.35151e-06
2.57643e-05
2.9766e-06
2.60537e-05
3.55794e-06
2.6363e-05
4.08664e-06
2.66804e-05
4.5564e-06
2.6995e-05
4.96342e-06
2.72973e-05
5.3062e-06
2.75794e-05
5.58523e-06
2.78351e-05
5.80259e-06
2.80599e-05
5.96152e-06
2.82511e-05
6.06612e-06
2.84073e-05
6.12097e-06
2.85281e-05
6.13083e-06
2.86144e-05
6.10049e-06
2.86677e-05
6.03456e-06
2.869e-05
5.93738e-06
2.86839e-05
5.81293e-06
2.86521e-05
5.66482e-06
2.85974e-05
5.49625e-06
2.85227e-05
5.31007e-06
2.84311e-05
5.10875e-06
2.83252e-05
4.89444e-06
2.82079e-05
4.66906e-06
2.80817e-05
4.43426e-06
2.79489e-05
4.19159e-06
2.7812e-05
3.94249e-06
2.76729e-05
3.68843e-06
2.75336e-05
3.43097e-06
2.73957e-05
3.17195e-06
2.72609e-05
2.91359e-06
2.71304e-05
2.65875e-06
2.70053e-05
2.41122e-06
2.68861e-05
2.17608e-06
2.67734e-05
1.96024e-06
2.66668e-05
1.77312e-06
2.65655e-05
1.62765e-06
1.54225e-06
2.50289e-05
3.06099e-07
2.51152e-05
9.30325e-07
2.52558e-05
1.55325e-06
2.54449e-05
2.16241e-06
2.56748e-05
2.74672e-06
2.59363e-05
3.29637e-06
2.62197e-05
3.80322e-06
2.65151e-05
4.26103e-06
2.68129e-05
4.66557e-06
2.71047e-05
5.01447e-06
2.73829e-05
5.30704e-06
2.76414e-05
5.54403e-06
2.78756e-05
5.72732e-06
2.80821e-05
5.85968e-06
2.82586e-05
5.94442e-06
2.84042e-05
5.98523e-06
2.85188e-05
5.98596e-06
2.86029e-05
5.95045e-06
2.86578e-05
5.88241e-06
2.86854e-05
5.78536e-06
2.86876e-05
5.66257e-06
2.86669e-05
5.51703e-06
2.86255e-05
5.35143e-06
2.85661e-05
5.16819e-06
2.8491e-05
4.96946e-06
2.84029e-05
4.75719e-06
2.83041e-05
4.53312e-06
2.81967e-05
4.2989e-06
2.80831e-05
4.05609e-06
2.79653e-05
3.8063e-06
2.7845e-05
3.55125e-06
2.7724e-05
3.29292e-06
2.76039e-05
3.03373e-06
2.74859e-05
2.77674e-06
2.73711e-05
2.52597e-06
2.72604e-05
2.28678e-06
2.71542e-05
2.06645e-06
2.70525e-05
1.87485e-06
2.69546e-05
1.72551e-06
1.6377e-06
2.50251e-05
2.81021e-07
2.51004e-05
8.54966e-07
2.52239e-05
1.42981e-06
2.53911e-05
1.99517e-06
2.55962e-05
2.54162e-06
2.5832e-05
3.06062e-06
2.60904e-05
3.54479e-06
2.63632e-05
3.9882e-06
2.66424e-05
4.38645e-06
2.69202e-05
4.73667e-06
2.71898e-05
5.03736e-06
2.74456e-05
5.28831e-06
2.76826e-05
5.49033e-06
2.78972e-05
5.64508e-06
2.80867e-05
5.75484e-06
2.82496e-05
5.82232e-06
2.83851e-05
5.85051e-06
2.84931e-05
5.84248e-06
2.85741e-05
5.80135e-06
2.86293e-05
5.73013e-06
2.86602e-05
5.6317e-06
2.86685e-05
5.50876e-06
2.86561e-05
5.3638e-06
2.86252e-05
5.19911e-06
2.85779e-05
5.01678e-06
2.85163e-05
4.81874e-06
2.84427e-05
4.60675e-06
2.83591e-05
4.38252e-06
2.82675e-05
4.14769e-06
2.81698e-05
3.90397e-06
2.80679e-05
3.6532e-06
2.79633e-05
3.3975e-06
2.78576e-05
3.13945e-06
2.7752e-05
2.88229e-06
2.76478e-05
2.63024e-06
2.75456e-05
2.38891e-06
2.74462e-05
2.16589e-06
2.73496e-05
1.97141e-06
2.72556e-05
1.81951e-06
1.7301e-06
2.50219e-05
2.59164e-07
2.50878e-05
7.89021e-07
2.51964e-05
1.32127e-06
2.53443e-05
1.84719e-06
2.55272e-05
2.35878e-06
2.57392e-05
2.84861e-06
2.59739e-05
3.31008e-06
2.62244e-05
3.73766e-06
2.64839e-05
4.127e-06
2.67456e-05
4.47494e-06
2.70035e-05
4.7795e-06
2.7252e-05
5.03974e-06
2.74867e-05
5.25569e-06
2.77036e-05
5.42811e-06
2.79001e-05
5.55843e-06
2.80739e-05
5.64851e-06
2.82238e-05
5.70057e-06
2.83493e-05
5.717e-06
2.84503e-05
5.70031e-06
2.85275e-05
5.653e-06
2.85816e-05
5.57755e-06
2.8614e-05
5.47633e-06
2.86262e-05
5.35159e-06
2.86199e-05
5.20544e-06
2.85969e-05
5.03984e-06
2.85589e-05
4.85667e-06
2.8508e-05
4.65768e-06
2.8446e-05
4.44456e-06
2.83746e-05
4.21902e-06
2.82958e-05
3.98282e-06
2.82111e-05
3.73791e-06
2.8122e-05
3.48652e-06
2.80301e-05
3.23134e-06
2.79367e-05
2.97577e-06
2.78427e-05
2.72423e-06
2.77491e-05
2.48252e-06
2.76565e-05
2.25848e-06
2.75652e-05
2.06264e-06
2.74754e-05
1.90941e-06
1.81914e-06
2.50191e-05
2.4007e-07
2.50769e-05
7.3121e-07
2.51725e-05
1.2257e-06
2.53035e-05
1.7162e-06
2.54663e-05
2.1959e-06
2.56566e-05
2.65834e-06
2.5869e-05
3.09766e-06
2.60979e-05
3.50876e-06
2.63375e-05
3.88747e-06
2.65819e-05
4.23054e-06
2.68257e-05
4.53568e-06
2.7064e-05
4.80148e-06
2.72923e-05
5.02734e-06
2.75071e-05
5.21337e-06
2.77052e-05
5.36028e-06
2.78845e-05
5.46923e-06
2.80433e-05
5.54175e-06
2.81807e-05
5.57963e-06
2.82962e-05
5.58481e-06
2.83899e-05
5.55931e-06
2.84622e-05
5.50519e-06
2.85141e-05
5.42449e-06
2.85465e-05
5.31917e-06
2.85608e-05
5.19114e-06
2.85584e-05
5.04222e-06
2.85409e-05
4.87417e-06
2.85099e-05
4.68867e-06
2.84671e-05
4.48742e-06
2.8414e-05
4.27212e-06
2.83522e-05
4.04458e-06
2.82833e-05
3.80679e-06
2.82088e-05
3.56108e-06
2.81299e-05
3.31025e-06
2.80478e-05
3.05782e-06
2.79637e-05
2.80836e-06
2.78784e-05
2.56784e-06
2.77925e-05
2.34429e-06
2.77067e-05
2.14848e-06
2.76211e-05
1.99505e-06
1.90461e-06
2.50167e-05
2.23362e-07
2.50675e-05
6.8046e-07
2.51517e-05
1.14149e-06
2.52676e-05
1.60024e-06
2.54126e-05
2.05091e-06
2.55831e-05
2.48788e-06
2.57748e-05
2.90596e-06
2.5983e-05
3.30053e-06
2.62028e-05
3.66762e-06
2.64293e-05
4.00403e-06
2.66577e-05
4.3073e-06
2.68835e-05
4.57571e-06
2.71026e-05
4.80823e-06
2.73115e-05
5.00444e-06
2.75073e-05
5.16449e-06
2.76876e-05
5.28897e-06
2.78505e-05
5.37881e-06
2.79949e-05
5.43527e-06
2.81199e-05
5.45978e-06
2.82253e-05
5.45391e-06
2.83112e-05
5.41932e-06
2.83779e-05
5.3577e-06
2.84264e-05
5.27074e-06
2.84574e-05
5.16012e-06
2.84721e-05
5.02748e-06
2.84718e-05
4.87445e-06
2.84579e-05
4.70263e-06
2.84316e-05
4.51366e-06
2.83945e-05
4.30922e-06
2.8348e-05
4.09113e-06
2.82933e-05
3.86143e-06
2.82319e-05
3.62251e-06
2.81649e-05
3.37724e-06
2.80935e-05
3.12925e-06
2.80186e-05
2.88321e-06
2.79412e-05
2.64526e-06
2.7862e-05
2.42354e-06
2.77815e-05
2.22898e-06
2.77002e-05
2.07635e-06
1.98638e-06
2.50146e-05
2.08725e-07
2.50592e-05
6.35869e-07
2.51335e-05
1.06725e-06
2.52361e-05
1.4976e-06
2.53651e-05
1.92195e-06
2.55175e-05
2.33544e-06
2.569e-05
2.73346e-06
2.58787e-05
3.11184e-06
2.60794e-05
3.46689e-06
2.6288e-05
3.79549e-06
2.65001e-05
4.09515e-06
2.67119e-05
4.36392e-06
2.69197e-05
4.60049e-06
2.712e-05
4.80406e-06
2.73102e-05
4.97432e-06
2.74878e-05
5.11139e-06
2.76509e-05
5.21573e-06
2.7798e-05
5.28811e-06
2.79283e-05
5.32953e-06
2.80411e-05
5.34113e-06
2.81362e-05
5.3242e-06
2.82138e-05
5.28011e-06
2.82743e-05
5.21026e-06
2.83183e-05
5.11611e-06
2.83467e-05
4.9991e-06
2.83604e-05
4.86071e-06
2.83606e-05
4.70245e-06
2.83484e-05
4.52586e-06
2.8325e-05
4.33261e-06
2.82916e-05
4.12449e-06
2.82495e-05
3.90357e-06
2.81997e-05
3.67226e-06
2.81435e-05
3.4335e-06
2.80817e-05
3.191e-06
2.80154e-05
2.94952e-06
2.79454e-05
2.71528e-06
2.78724e-05
2.49654e-06
2.77971e-05
2.30428e-06
2.77201e-05
2.15333e-06
2.06436e-06
2.50128e-05
1.95894e-07
2.5052e-05
5.96665e-07
2.51175e-05
1.00178e-06
2.52083e-05
1.40677e-06
2.53229e-05
1.80736e-06
2.5459e-05
2.19933e-06
2.56139e-05
2.57862e-06
2.57843e-05
2.94147e-06
2.59667e-05
3.28446e-06
2.61575e-05
3.60464e-06
2.63532e-05
3.89949e-06
2.65501e-05
4.16699e-06
2.6745e-05
4.4056e-06
2.69348e-05
4.61425e-06
2.71169e-05
4.79228e-06
2.72888e-05
4.93943e-06
2.74488e-05
5.05577e-06
2.75952e-05
5.14166e-06
2.77271e-05
5.19771e-06
2.78435e-05
5.22471e-06
2.79441e-05
5.22359e-06
2.80288e-05
5.19542e-06
2.80977e-05
5.14134e-06
2.81512e-05
5.06256e-06
2.819e-05
4.96034e-06
2.82147e-05
4.83601e-06
2.82262e-05
4.69094e-06
2.82255e-05
4.52661e-06
2.82135e-05
4.3446e-06
2.81912e-05
4.14671e-06
2.81598e-05
3.93499e-06
2.81202e-05
3.71186e-06
2.80734e-05
3.48032e-06
2.80203e-05
3.24412e-06
2.79618e-05
3.00808e-06
2.78985e-05
2.77849e-06
2.78314e-05
2.56365e-06
2.77611e-05
2.37457e-06
2.76884e-05
2.22604e-06
2.13851e-06
2.50113e-05
1.84641e-07
2.50457e-05
5.62183e-07
2.51035e-05
9.44043e-07
2.51838e-05
1.32641e-06
2.52856e-05
1.70561e-06
2.54069e-05
2.07799e-06
2.55456e-05
2.43997e-06
2.56989e-05
2.78816e-06
2.58639e-05
3.11942e-06
2.60376e-05
3.43095e-06
2.62168e-05
3.72028e-06
2.63985e-05
3.98535e-06
2.65796e-05
4.22449e-06
2.67574e-05
4.43642e-06
2.69294e-05
4.62023e-06
2.70935e-05
4.77535e-06
2.72478e-05
4.90153e-06
2.73906e-05
4.9988e-06
2.75209e-05
5.06743e-06
2.76377e-05
5.10788e-06
2.77405e-05
5.12079e-06
2.7829e-05
5.10694e-06
2.79031e-05
5.06723e-06
2.79631e-05
5.00263e-06
2.80092e-05
4.91423e-06
2.8042e-05
4.80319e-06
2.80621e-05
4.67077e-06
2.80704e-05
4.51835e-06
2.80676e-05
4.34744e-06
2.80545e-05
4.15979e-06
2.8032e-05
3.95745e-06
2.80011e-05
3.74284e-06
2.79624e-05
3.51898e-06
2.79169e-05
3.28965e-06
2.78652e-05
3.05972e-06
2.78082e-05
2.83551e-06
2.77465e-05
2.62532e-06
2.7681e-05
2.44012e-06
2.76124e-05
2.29457e-06
2.20884e-06
2.50099e-05
1.74769e-07
2.50402e-05
5.31839e-07
2.50912e-05
8.93102e-07
2.51622e-05
1.25532e-06
2.52525e-05
1.61534e-06
2.53605e-05
1.97e-06
2.54844e-05
2.31612e-06
2.56219e-05
2.65066e-06
2.57706e-05
2.97074e-06
2.59278e-05
3.2737e-06
2.60909e-05
3.55717e-06
2.62572e-05
3.81908e-06
2.6424e-05
4.05768e-06
2.65889e-05
4.27153e-06
2.67496e-05
4.45953e-06
2.69041e-05
4.62088e-06
2.70505e-05
4.75507e-06
2.71875e-05
4.86185e-06
2.73137e-05
4.94121e-06
2.74282e-05
4.99333e-06
2.75304e-05
5.01859e-06
2.76199e-05
5.01752e-06
2.76963e-05
4.99076e-06
2.77598e-05
4.93912e-06
2.78106e-05
4.86349e-06
2.78489e-05
4.76487e-06
2.78753e-05
4.64441e-06
2.78902e-05
4.50337e-06
2.78945e-05
4.34322e-06
2.78886e-05
4.16564e-06
2.78734e-05
3.97265e-06
2.78495e-05
3.76669e-06
2.78178e-05
3.55076e-06
2.77787e-05
3.32867e-06
2.77332e-05
3.10531e-06
2.76817e-05
2.88698e-06
2.7625e-05
2.68198e-06
2.75639e-05
2.50119e-06
2.74995e-05
2.35907e-06
2.27541e-06
2.50087e-05
1.66098e-07
2.50354e-05
5.05107e-07
2.50804e-05
8.48123e-07
2.51433e-05
1.19241e-06
2.52233e-05
1.53529e-06
2.53193e-05
1.87399e-06
2.54297e-05
2.20572e-06
2.55527e-05
2.52772e-06
2.56861e-05
2.83734e-06
2.58277e-05
3.13208e-06
2.59752e-05
3.40965e-06
2.61263e-05
3.668e-06
2.62786e-05
3.90533e-06
2.64301e-05
4.1201e-06
2.65785e-05
4.31107e-06
2.67222e-05
4.47725e-06
2.68593e-05
4.61793e-06
2.69885e-05
4.73263e-06
2.71087e-05
4.82109e-06
2.72187e-05
4.88328e-06
2.7318e-05
4.91933e-06
2.74059e-05
4.92955e-06
2.74823e-05
4.9144e-06
2.75469e-05
4.87448e-06
2.75999e-05
4.81051e-06
2.76414e-05
4.72336e-06
2.76718e-05
4.61406e-06
2.76914e-05
4.48377e-06
2.77007e-05
4.33388e-06
2.77004e-05
4.16603e-06
2.76908e-05
3.9822e-06
2.76727e-05
3.78481e-06
2.76466e-05
3.57687e-06
2.76131e-05
3.36219e-06
2.75727e-05
3.14564e-06
2.75262e-05
2.93354e-06
2.74741e-05
2.73409e-06
2.74172e-05
2.55807e-06
2.73566e-05
2.41968e-06
2.33828e-06
2.50076e-05
1.58468e-07
2.50312e-05
4.81505e-07
2.5071e-05
8.08339e-07
2.51267e-05
1.13669e-06
2.51977e-05
1.46429e-06
2.5283e-05
1.78872e-06
2.53812e-05
2.1075e-06
2.54908e-05
2.41812e-06
2.561e-05
2.71813e-06
2.57369e-05
3.00518e-06
2.58695e-05
3.27706e-06
2.60058e-05
3.53172e-06
2.61438e-05
3.76736e-06
2.62815e-05
3.98236e-06
2.64172e-05
4.17538e-06
2.65492e-05
4.34529e-06
2.66759e-05
4.49121e-06
2.6796e-05
4.61247e-06
2.69085e-05
4.70863e-06
2.70123e-05
4.77946e-06
2.71068e-05
4.82489e-06
2.71913e-05
4.84503e-06
2.72655e-05
4.84018e-06
2.73292e-05
4.81075e-06
2.73824e-05
4.75734e-06
2.74251e-05
4.68067e-06
2.74575e-05
4.58165e-06
2.74799e-05
4.46137e-06
2.74926e-05
4.32114e-06
2.74961e-05
4.16254e-06
2.74908e-05
3.98752e-06
2.74771e-05
3.79848e-06
2.74556e-05
3.59842e-06
2.74266e-05
3.39113e-06
2.73908e-05
3.18149e-06
2.73486e-05
2.97576e-06
2.73006e-05
2.78207e-06
2.72476e-05
2.61103e-06
2.71907e-05
2.47656e-06
2.39753e-06
2.50067e-05
1.51722e-07
2.50277e-05
4.60574e-07
2.5063e-05
7.73022e-07
2.51125e-05
1.08722e-06
2.51755e-05
1.40124e-06
2.52512e-05
1.71299e-06
2.53385e-05
2.02024e-06
2.54359e-05
2.32068e-06
2.5542e-05
2.61204e-06
2.56552e-05
2.89207e-06
2.57736e-05
3.15862e-06
2.58956e-05
3.4097e-06
2.60195e-05
3.64346e-06
2.61436e-05
3.85827e-06
2.62663e-05
4.05269e-06
2.63861e-05
4.22547e-06
2.65017e-05
4.37562e-06
2.66118e-05
4.50233e-06
2.67155e-05
4.60498e-06
2.68118e-05
4.68319e-06
2.68999e-05
4.73671e-06
2.69795e-05
4.76552e-06
2.70499e-05
4.76973e-06
2.7111e-05
4.74963e-06
2.71627e-05
4.70567e-06
2.72049e-05
4.63847e-06
2.72377e-05
4.54883e-06
2.72613e-05
4.43776e-06
2.7276e-05
4.30648e-06
2.7282e-05
4.15656e-06
2.72796e-05
3.98988e-06
2.72693e-05
3.80882e-06
2.72513e-05
3.61638e-06
2.72261e-05
3.41634e-06
2.7194e-05
3.21353e-06
2.71556e-05
3.01418e-06
2.71114e-05
2.82631e-06
2.70621e-05
2.66034e-06