/*--------------------------------*- C++ -*----------------------------------*\
| =========                 |                                                 |
| \\      /  F ield         | OpenFOAM: The Open Source CFD Toolbox           |
|  \\    /   O peration     | Version:  v2012                                 |
|   \\  /    A nd           | Website:  www.openfoam.com                      |
|    \\/     M anipulation  |                                                 |
\*---------------------------------------------------------------------------*/
FoamFile
{
    version     2.0;
    format      ascii;
    class       volVectorField;
    location    "0.7";
    object      U;
}
// * * * * * * * * * * * * * * * * * * * * * * * * * * * * * * * * * * * * * //

dimensions      [0 1 -1 0 0 0 0];


internalField   nonuniform List<vector> 
1600
(
(0.711037 0.139454 0)
(0.607771 0.126613 0)
(0.445318 0.0759452 0)
(0.325828 0.0431764 0)
(0.254695 0.0251422 0)
(0.209493 0.0153453 0)
(0.178294 0.00996219 0)
(0.155677 0.00690091 0)
(0.138598 0.00506133 0)
(0.125228 0.00388438 0)
(0.114459 0.00308575 0)
(0.105593 0.00251614 0)
(0.0981644 0.00209329 0)
(0.0918513 0.00176928 0)
(0.0864232 0.00151463 0)
(0.0817101 0.00131027 0)
(0.0775843 0.00114337 0)
(0.0739475 0.00100495 0)
(0.0707232 0.000888564 0)
(0.0678509 0.000789468 0)
(0.0652823 0.000704101 0)
(0.0629784 0.000629743 0)
(0.0609076 0.000564283 0)
(0.059044 0.000506065 0)
(0.0573661 0.000453777 0)
(0.0558563 0.000406377 0)
(0.0544996 0.000363044 0)
(0.0532834 0.000323147 0)
(0.0521969 0.000286233 0)
(0.0512304 0.000252035 0)
(0.0503747 0.000220494 0)
(0.0496205 0.000191819 0)
(0.0489579 0.000166581 0)
(0.0483749 0.000145886 0)
(0.047856 0.000131592 0)
(0.0473821 0.000126566 0)
(0.0469286 0.000135741 0)
(0.0464463 0.000168715 0)
(0.0458291 0.000231711 0)
(0.0451699 0.000287775 0)
(0.990953 0.269779 0)
(0.984192 0.296549 0)
(0.868802 0.216299 0)
(0.739434 0.147751 0)
(0.633116 0.101115 0)
(0.549346 0.0707688 0)
(0.483317 0.0512199 0)
(0.43103 0.0384366 0)
(0.389132 0.0298109 0)
(0.355023 0.0237746 0)
(0.326813 0.0194001 0)
(0.303148 0.0161297 0)
(0.283041 0.0136183 0)
(0.265769 0.0116452 0)
(0.250789 0.0100644 0)
(0.23769 0.00877638 0)
(0.226155 0.00771106 0)
(0.215935 0.0068181 0)
(0.206834 0.00606044 0)
(0.198694 0.00541029 0)
(0.19139 0.00484645 0)
(0.184818 0.00435253 0)
(0.178892 0.00391569 0)
(0.173544 0.00352577 0)
(0.168715 0.0031747 0)
(0.164357 0.00285605 0)
(0.160427 0.00256472 0)
(0.156892 0.00229684 0)
(0.15372 0.0020496 0)
(0.150884 0.00182127 0)
(0.148358 0.00161134 0)
(0.146115 0.00142061 0)
(0.144129 0.00125156 0)
(0.142368 0.00110875 0)
(0.140796 0.000999263 0)
(0.13937 0.000932946 0)
(0.138045 0.000923483 0)
(0.136743 0.000990148 0)
(0.135309 0.00113378 0)
(0.133978 0.00125638 0)
(1.02867 0.225552 0)
(1.06695 0.333364 0)
(1.0327 0.306478 0)
(0.957533 0.25027 0)
(0.872317 0.196191 0)
(0.790729 0.152257 0)
(0.717778 0.118956 0)
(0.654632 0.0942967 0)
(0.600657 0.076021 0)
(0.554605 0.0623162 0)
(0.515178 0.051871 0)
(0.48123 0.0437692 0)
(0.451805 0.0373754 0)
(0.426127 0.0322472 0)
(0.403577 0.028072 0)
(0.383654 0.0246259 0)
(0.36596 0.0217458 0)
(0.350171 0.0193104 0)
(0.336024 0.0172288 0)
(0.323305 0.0154313 0)
(0.311839 0.0138641 0)
(0.301478 0.0124849 0)
(0.292103 0.0112605 0)
(0.283611 0.0101642 0)
(0.275918 0.00917466 0)
(0.268952 0.00827486 0)
(0.262651 0.00745129 0)
(0.256963 0.00669355 0)
(0.251842 0.00599407 0)
(0.247245 0.00534811 0)
(0.243132 0.00475386 0)
(0.239466 0.00421271 0)
(0.236206 0.00372967 0)
(0.23331 0.00331385 0)
(0.230727 0.00297864 0)
(0.228407 0.00274106 0)
(0.226296 0.00262033 0)
(0.22431 0.00263287 0)
(0.222268 0.00275782 0)
(0.220494 0.00286674 0)
(1.02441 0.165378 0)
(1.0707 0.308644 0)
(1.08302 0.33543 0)
(1.05663 0.310672 0)
(1.00622 0.268611 0)
(0.945587 0.225239 0)
(0.883209 0.1869 0)
(0.823609 0.155134 0)
(0.76881 0.12951 0)
(0.719414 0.109015 0)
(0.67531 0.092604 0)
(0.636076 0.0793812 0)
(0.601185 0.0686328 0)
(0.570107 0.0598084 0)
(0.542357 0.052489 0)
(0.517505 0.0463557 0)
(0.495182 0.0411652 0)
(0.475072 0.0367305 0)
(0.456907 0.0329065 0)
(0.440461 0.0295797 0)
(0.425544 0.0266605 0)
(0.411993 0.0240775 0)
(0.399671 0.0217736 0)
(0.388462 0.0197024 0)
(0.378265 0.0178267 0)
(0.368997 0.0161165 0)
(0.360582 0.0145476 0)
(0.352958 0.0131014 0)
(0.346068 0.0117642 0)
(0.339859 0.0105273 0)
(0.334285 0.00938657 0)
(0.329298 0.00834342 0)
(0.324852 0.00740477 0)
(0.320897 0.00658345 0)
(0.317378 0.00589782 0)
(0.31424 0.00537 0)
(0.311432 0.00502202 0)
(0.30886 0.00486624 0)
(0.306318 0.00486961 0)
(0.304192 0.00490366 0)
(1.01625 0.123036 0)
(1.05677 0.268109 0)
(1.08815 0.326762 0)
(1.09274 0.331877 0)
(1.07274 0.309688 0)
(1.03665 0.276638 0)
(0.991905 0.241721 0)
(0.943791 0.209159 0)
(0.895673 0.180511 0)
(0.849486 0.156023 0)
(0.806198 0.135368 0)
(0.766194 0.118026 0)
(0.729517 0.103457 0)
(0.696036 0.091174 0)
(0.665532 0.080762 0)
(0.637755 0.07188 0)
(0.612454 0.0642505 0)
(0.589392 0.0576496 0)
(0.568351 0.0518969 0)
(0.549136 0.0468463 0)
(0.531575 0.0423797 0)
(0.515516 0.0384008 0)
(0.500827 0.0348308 0)
(0.487394 0.0316053 0)
(0.475114 0.0286715 0)
(0.463901 0.0259865 0)
(0.453679 0.0235154 0)
(0.444378 0.0212312 0)
(0.435938 0.0191135 0)
(0.428305 0.0171489 0)
(0.421427 0.0153308 0)
(0.415253 0.0136597 0)
(0.409735 0.0121434 0)
(0.40482 0.0107974 0)
(0.400456 0.00964362 0)
(0.396585 0.00870818 0)
(0.393157 0.00801623 0)
(0.390071 0.00758124 0)
(0.387091 0.00737285 0)
(0.384663 0.00728285 0)
(1.01025 0.0944574 0)
(1.04225 0.227938 0)
(1.07807 0.301292 0)
(1.09884 0.328262 0)
(1.10005 0.325571 0)
(1.08493 0.306493 0)
(1.05824 0.279991 0)
(1.02435 0.251469 0)
(0.986704 0.223844 0)
(0.947778 0.198487 0)
(0.909189 0.17588 0)
(0.871925 0.156043 0)
(0.836542 0.138772 0)
(0.803307 0.123778 0)
(0.772308 0.110758 0)
(0.743526 0.0994232 0)
(0.716875 0.0895202 0)
(0.692242 0.0808276 0)
(0.669499 0.0731577 0)
(0.648516 0.066352 0)
(0.629166 0.0602775 0)
(0.611331 0.0548226 0)
(0.594904 0.0498942 0)
(0.579785 0.0454143 0)
(0.565887 0.0413178 0)
(0.55313 0.0375511 0)
(0.541442 0.0340704 0)
(0.530759 0.0308408 0)
(0.521024 0.0278362 0)
(0.512183 0.0250385 0)
(0.504185 0.0224383 0)
(0.496983 0.020035 0)
(0.490528 0.0178368 0)
(0.484772 0.015861 0)
(0.479662 0.0141328 0)
(0.475144 0.0126826 0)
(0.471169 0.0115413 0)
(0.467628 0.0107302 0)
(0.464258 0.0102341 0)
(0.461562 0.00997857 0)
(1.00654 0.0746504 0)
(1.03107 0.192933 0)
(1.06495 0.270498 0)
(1.09232 0.311117 0)
(1.10627 0.324071 0)
(1.10648 0.318684 0)
(1.09506 0.302467 0)
(1.07486 0.28078 0)
(1.04867 0.257108 0)
(1.01885 0.233538 0)
(0.987197 0.211208 0)
(0.955009 0.190655 0)
(0.923178 0.172056 0)
(0.892283 0.155389 0)
(0.862681 0.140527 0)
(0.834572 0.127299 0)
(0.80805 0.115521 0)
(0.783139 0.105015 0)
(0.75982 0.0956146 0)
(0.738048 0.0871725 0)
(0.717762 0.0795578 0)
(0.698893 0.072657 0)
(0.681372 0.0663718 0)
(0.66513 0.0606179 0)
(0.6501 0.0553238 0)
(0.636222 0.0504288 0)
(0.623438 0.0458832 0)
(0.611693 0.0416464 0)
(0.600939 0.0376878 0)
(0.591129 0.0339858 0)
(0.582219 0.0305288 0)
(0.574166 0.027315 0)
(0.566927 0.0243531 0)
(0.560458 0.0216621 0)
(0.554711 0.0192707 0)
(0.549637 0.0172154 0)
(0.545187 0.0155358 0)
(0.541245 0.0142676 0)
(0.537528 0.0134205 0)
(0.534594 0.0129641 0)
(1.00434 0.0605546 0)
(1.02315 0.163898 0)
(1.05293 0.23989 0)
(1.08156 0.287718 0)
(1.10208 0.311764 0)
(1.11231 0.31791 0)
(1.11242 0.311772 0)
(1.1038 0.297964 0)
(1.0883 0.279916 0)
(1.0678 0.259997 0)
(1.04394 0.239738 0)
(1.01807 0.220068 0)
(0.991201 0.201498 0)
(0.964104 0.184272 0)
(0.937321 0.168465 0)
(0.911227 0.154051 0)
(0.886069 0.14095 0)
(0.862003 0.129053 0)
(0.83912 0.118245 0)
(0.817462 0.108408 0)
(0.797043 0.0994307 0)
(0.777851 0.0912109 0)
(0.759866 0.0836562 0)
(0.743056 0.0766847 0)
(0.727386 0.0702243 0)
(0.712818 0.0642132 0)
(0.699316 0.0585989 0)
(0.686842 0.0533389 0)
(0.675359 0.0483998 0)
(0.664834 0.0437583 0)
(0.655231 0.0394014 0)
(0.646517 0.0353271 0)
(0.638657 0.0315449 0)
(0.631613 0.0280763 0)
(0.625345 0.0249545 0)
(0.619807 0.0222236 0)
(0.614957 0.0199357 0)
(0.61067 0.018146 0)
(0.606648 0.0168965 0)
(0.603507 0.0162091 0)
(1.00303 0.0502006 0)
(1.01763 0.140201 0)
(1.043 0.211795 0)
(1.07029 0.262409 0)
(1.09342 0.293529 0)
(1.10952 0.30848 0)
(1.11761 0.3111 0)
(1.11794 0.304995 0)
(1.11149 0.293169 0)
(1.09952 0.277934 0)
(1.08334 0.260965 0)
(1.06413 0.243411 0)
(1.04289 0.226026 0)
(1.02043 0.209271 0)
(0.997407 0.193405 0)
(0.97429 0.178551 0)
(0.951443 0.164743 0)
(0.929127 0.151962 0)
(0.907525 0.140154 0)
(0.886764 0.129249 0)
(0.866925 0.119168 0)
(0.84806 0.109833 0)
(0.830195 0.101167 0)
(0.813343 0.0930978 0)
(0.797503 0.0855611 0)
(0.782666 0.0784985 0)
(0.76882 0.0718597 0)
(0.755947 0.065603 0)
(0.74403 0.0596955 0)
(0.733047 0.054114 0)
(0.722977 0.0488458 0)
(0.713798 0.0438899 0)
(0.705486 0.0392575 0)
(0.698011 0.0349735 0)
(0.691341 0.0310771 0)
(0.685437 0.0276219 0)
(0.680261 0.0246753 0)
(0.675687 0.0223163 0)
(0.671405 0.0206251 0)
(0.668089 0.0196826 0)
(1.0022 0.0423451 0)
(1.01373 0.120872 0)
(1.0351 0.186942 0)
(1.05995 0.237557 0)
(1.08335 0.27264 0)
(1.1024 0.293794 0)
(1.11556 0.303427 0)
(1.12235 0.304151 0)
(1.12303 0.298386 0)
(1.1183 0.288181 0)
(1.10906 0.275157 0)
(1.09623 0.260536 0)
(1.0807 0.245198 0)
(1.06322 0.229755 0)
(1.04444 0.21461 0)
(1.0249 0.200015 0)
(1.00501 0.186113 0)
(0.985107 0.172971 0)
(0.965442 0.160608 0)
(0.946208 0.149008 0)
(0.927548 0.138134 0)
(0.909568 0.12794 0)
(0.892341 0.118372 0)
(0.875922 0.109377 0)
(0.860344 0.100901 0)
(0.845631 0.092896 0)
(0.831795 0.0853177 0)
(0.818843 0.078129 0)
(0.806775 0.0713003 0)
(0.795588 0.0648108 0)
(0.785276 0.0586501 0)
(0.775828 0.0528193 0)
(0.767233 0.0473331 0)
(0.759472 0.0422208 0)
(0.752521 0.037529 0)
(0.74635 0.0333225 0)
(0.740926 0.0296866 0)
(0.736124 0.0267277 0)
(0.731629 0.0245678 0)
(0.728172 0.0233525 0)
(1.00167 0.0362173 0)
(1.01091 0.105015 0)
(1.02887 0.165332 0)
(1.05099 0.214315 0)
(1.07338 0.251131 0)
(1.09346 0.276306 0)
(1.10951 0.291201 0)
(1.12063 0.297575 0)
(1.12661 0.297257 0)
(1.12767 0.291933 0)
(1.12433 0.283051 0)
(1.11724 0.271785 0)
(1.10707 0.25905 0)
(1.0945 0.245532 0)
(1.0801 0.231728 0)
(1.0644 0.217985 0)
(1.04783 0.204537 0)
(1.03077 0.191532 0)
(1.0135 0.179053 0)
(0.996263 0.167142 0)
(0.979248 0.155808 0)
(0.962605 0.145039 0)
(0.946449 0.134812 0)
(0.930869 0.125095 0)
(0.915934 0.115852 0)
(0.901696 0.107047 0)
(0.888194 0.0986475 0)
(0.875456 0.0906232 0)
(0.863505 0.0829506 0)
(0.852354 0.0756138 0)
(0.842013 0.0686065 0)
(0.832486 0.0619338 0)
(0.823773 0.0556148 0)
(0.815868 0.0496851 0)
(0.808757 0.0441997 0)
(0.802418 0.0392365 0)
(0.796825 0.0349004 0)
(0.791855 0.0313272 0)
(0.787195 0.0286841 0)
(0.783632 0.0271854 0)
(1.0013 0.0313293 0)
(1.00882 0.0919038 0)
(1.02396 0.146679 0)
(1.0434 0.193151 0)
(1.06418 0.230187 0)
(1.08409 0.257685 0)
(1.10148 0.276286 0)
(1.11527 0.287085 0)
(1.12495 0.29138 0)
(1.13041 0.290482 0)
(1.13184 0.285606 0)
(1.12963 0.277802 0)
(1.12426 0.267946 0)
(1.11624 0.256736 0)
(1.10607 0.244712 0)
(1.09422 0.232283 0)
(1.08111 0.219744 0)
(1.06709 0.207308 0)
(1.05249 0.195115 0)
(1.03756 0.183259 0)
(1.02252 0.171792 0)
(1.00755 0.16074 0)
(0.992804 0.150109 0)
(0.978394 0.139892 0)
(0.964418 0.130074 0)
(0.950955 0.120636 0)
(0.938067 0.111557 0)
(0.925806 0.102818 0)
(0.914212 0.0944028 0)
(0.903317 0.0863033 0)
(0.893145 0.0785186 0)
(0.883717 0.0710597 0)
(0.875043 0.0639516 0)
(0.86713 0.057237 0)
(0.859974 0.050981 0)
(0.853562 0.0452755 0)
(0.847877 0.0402466 0)
(0.8428 0.0360611 0)
(0.838025 0.0329328 0)
(0.834391 0.0311473 0)
(1.00104 0.0273598 0)
(1.00724 0.0809703 0)
(1.02005 0.130611 0)
(1.03705 0.174167 0)
(1.05598 0.210446 0)
(1.07503 0.23901 0)
(1.09271 0.260034 0)
(1.10794 0.274125 0)
(1.12002 0.282146 0)
(1.12864 0.285063 0)
(1.13375 0.283842 0)
(1.13552 0.279375 0)
(1.13424 0.272449 0)
(1.13026 0.263727 0)
(1.12398 0.253751 0)
(1.11579 0.242953 0)
(1.10606 0.231669 0)
(1.09513 0.220151 0)
(1.0833 0.208587 0)
(1.07084 0.197111 0)
(1.05798 0.185813 0)
(1.04491 0.174755 0)
(1.03181 0.163972 0)
(1.01882 0.153482 0)
(1.00605 0.143291 0)
(0.993604 0.133398 0)
(0.981565 0.123796 0)
(0.970001 0.114479 0)
(0.958972 0.105441 0)
(0.948525 0.096681 0)
(0.9387 0.0882072 0)
(0.92953 0.0800368 0)
(0.921039 0.0722021 0)
(0.913244 0.0647543 0)
(0.90615 0.0577693 0)
(0.899757 0.0513543 0)
(0.894055 0.045657 0)
(0.888931 0.040876 0)
(0.884087 0.0372724 0)
(0.880418 0.035204 0)
(1.00084 0.0240894 0)
(1.00601 0.0717791 0)
(1.01691 0.116761 0)
(1.03174 0.157281 0)
(1.04879 0.192207 0)
(1.06661 0.220945 0)
(1.08393 0.243384 0)
(1.09969 0.259791 0)
(1.11317 0.270693 0)
(1.12393 0.276763 0)
(1.13175 0.278733 0)
(1.13663 0.277327 0)
(1.13869 0.273216 0)
(1.13816 0.266998 0)
(1.13532 0.259186 0)
(1.13047 0.250207 0)
(1.12391 0.240409 0)
(1.11595 0.23007 0)
(1.10687 0.219406 0)
(1.09692 0.20858 0)
(1.08632 0.197717 0)
(1.07528 0.186903 0)
(1.06398 0.176202 0)
(1.05257 0.165656 0)
(1.04118 0.155291 0)
(1.02993 0.145122 0)
(1.01892 0.13516 0)
(1.00823 0.125411 0)
(0.997935 0.11588 0)
(0.988098 0.106576 0)
(0.978771 0.0975144 0)
(0.969999 0.0887218 0)
(0.961816 0.0802385 0)
(0.954252 0.0721251 0)
(0.94732 0.0644688 0)
(0.941029 0.0573927 0)
(0.935379 0.0510664 0)
(0.930263 0.0457203 0)
(0.925398 0.0416625 0)
(0.921728 0.0393216 0)
(1.00069 0.021363 0)
(1.00504 0.0639954 0)
(1.01436 0.104798 0)
(1.0273 0.14233 0)
(1.04256 0.175567 0)
(1.05899 0.203869 0)
(1.07552 0.226962 0)
(1.09121 0.244884 0)
(1.10535 0.257916 0)
(1.11742 0.266495 0)
(1.12712 0.271151 0)
(1.13432 0.272442 0)
(1.13902 0.270922 0)
(1.14133 0.267104 0)
(1.14141 0.26145 0)
(1.1395 0.254363 0)
(1.13582 0.246184 0)
(1.13062 0.237195 0)
(1.12414 0.227627 0)
(1.11663 0.217664 0)
(1.10828 0.20745 0)
(1.09929 0.197096 0)
(1.08985 0.186685 0)
(1.08012 0.176281 0)
(1.07022 0.165927 0)
(1.06029 0.155658 0)
(1.05043 0.145496 0)
(1.04075 0.135462 0)
(1.03132 0.125572 0)
(1.02222 0.115846 0)
(1.01352 0.106308 0)
(1.00526 0.0969924 0)
(0.99749 0.0879499 0)
(0.990252 0.0792503 0)
(0.983568 0.0709932 0)
(0.977454 0.0633173 0)
(0.971918 0.0564143 0)
(0.966863 0.0505454 0)
(0.962019 0.0460641 0)
(0.958382 0.0434677 0)
(1.00058 0.0190677 0)
(1.00427 0.0573596 0)
(1.01227 0.0944381 0)
(1.02358 0.129122 0)
(1.03718 0.160511 0)
(1.05218 0.187978 0)
(1.06769 0.211165 0)
(1.08291 0.229969 0)
(1.09715 0.244494 0)
(1.1099 0.254996 0)
(1.1208 0.261837 0)
(1.12965 0.265431 0)
(1.13635 0.266213 0)
(1.1409 0.264609 0)
(1.1434 0.26102 0)
(1.14398 0.255807 0)
(1.14282 0.24929 0)
(1.1401 0.241744 0)
(1.13603 0.233399 0)
(1.1308 0.224448 0)
(1.12461 0.215049 0)
(1.11763 0.205327 0)
(1.11004 0.195381 0)
(1.102 0.185292 0)
(1.09364 0.175118 0)
(1.08509 0.164908 0)
(1.07647 0.154699 0)
(1.06788 0.144522 0)
(1.05941 0.134407 0)
(1.05114 0.124382 0)
(1.04315 0.114481 0)
(1.03549 0.104749 0)
(1.02822 0.0952436 0)
(1.02139 0.086046 0)
(1.01503 0.077268 0)
(1.00916 0.0690638 0)
(1.00379 0.0616464 0)
(0.99884 0.0553066 0)
(0.994058 0.050441 0)
(0.990483 0.0476113 0)
(1.00049 0.0171192 0)
(1.00364 0.0516694 0)
(1.01055 0.0854399 0)
(1.02043 0.117462 0)
(1.03253 0.14696 0)
(1.04614 0.173346 0)
(1.06053 0.196232 0)
(1.07501 0.215431 0)
(1.08898 0.230926 0)
(1.10193 0.242842 0)
(1.1135 0.251405 0)
(1.12343 0.256906 0)
(1.13155 0.259675 0)
(1.13782 0.260052 0)
(1.14224 0.258372 0)
(1.14488 0.254948 0)
(1.14586 0.250068 0)
(1.1453 0.243988 0)
(1.14337 0.236931 0)
(1.14023 0.229087 0)
(1.13604 0.220618 0)
(1.13096 0.211658 0)
(1.12516 0.202317 0)
(1.11877 0.192685 0)
(1.11194 0.182836 0)
(1.10479 0.172827 0)
(1.09743 0.16271 0)
(1.08998 0.152524 0)
(1.08252 0.142311 0)
(1.07514 0.132107 0)
(1.06792 0.121958 0)
(1.06093 0.111915 0)
(1.05423 0.102047 0)
(1.04787 0.0924448 0)
(1.04188 0.0832319 0)
(1.0363 0.0745779 0)
(1.03115 0.0667159 0)
(1.02635 0.0599646 0)
(1.02166 0.0547603 0)
(1.01818 0.0517238 0)
(1.00041 0.0154538 0)
(1.00312 0.0467647 0)
(1.00911 0.0776022 0)
(1.01777 0.107171 0)
(1.02852 0.134806 0)
(1.0408 0.159975 0)
(1.05403 0.182291 0)
(1.06764 0.201521 0)
(1.08107 0.217572 0)
(1.09389 0.230472 0)
(1.10571 0.240345 0)
(1.11626 0.247382 0)
(1.12534 0.251821 0)
(1.13285 0.253925 0)
(1.13873 0.253961 0)
(1.14302 0.252195 0)
(1.14575 0.248876 0)
(1.14702 0.244233 0)
(1.14695 0.238474 0)
(1.14565 0.231781 0)
(1.14327 0.224312 0)
(1.13995 0.216204 0)
(1.13581 0.207571 0)
(1.131 0.198511 0)
(1.12564 0.189103 0)
(1.11985 0.179418 0)
(1.11375 0.169512 0)
(1.10743 0.159439 0)
(1.101 0.149244 0)
(1.09454 0.138976 0)
(1.08814 0.128688 0)
(1.08186 0.118439 0)
(1.07576 0.108309 0)
(1.06991 0.0983961 0)
(1.06434 0.0888372 0)
(1.05909 0.0798159 0)
(1.05419 0.071584 0)
(1.04957 0.0644855 0)
(1.04501 0.0589928 0)
(1.04164 0.0557793 0)
(1.00035 0.0140219 0)
(1.00269 0.0425182 0)
(1.0079 0.0707572 0)
(1.0155 0.0980824 0)
(1.02504 0.123929 0)
(1.0361 0.147823 0)
(1.04819 0.169394 0)
(1.06084 0.188391 0)
(1.07358 0.204676 0)
(1.08601 0.21821 0)
(1.09777 0.229039 0)
(1.10858 0.237278 0)
(1.11822 0.243087 0)
(1.12657 0.246659 0)
(1.13352 0.248204 0)
(1.13906 0.247936 0)
(1.14319 0.246065 0)
(1.14596 0.242792 0)
(1.14745 0.238301 0)
(1.14775 0.232761 0)
(1.14696 0.226323 0)
(1.1452 0.219119 0)
(1.14259 0.211263 0)
(1.13923 0.202856 0)
(1.13525 0.193984 0)
(1.13076 0.18472 0)
(1.12587 0.175129 0)
(1.12067 0.165271 0)
(1.11525 0.1552 0)
(1.10971 0.144972 0)
(1.10412 0.134646 0)
(1.09856 0.124292 0)
(1.0931 0.113995 0)
(1.08778 0.103866 0)
(1.08266 0.0940501 0)
(1.07777 0.0847452 0)
(1.07315 0.0762201 0)
(1.06873 0.0688416 0)
(1.06432 0.0631136 0)
(1.06108 0.0597549 0)
(1.0003 0.0127847 0)
(1.00233 0.0388276 0)
(1.00688 0.0647646 0)
(1.01356 0.0900522 0)
(1.02203 0.114211 0)
(1.03195 0.136822 0)
(1.04295 0.157545 0)
(1.05462 0.176127 0)
(1.06658 0.192401 0)
(1.07845 0.206289 0)
(1.08992 0.21778 0)
(1.10071 0.226928 0)
(1.1106 0.233833 0)
(1.11944 0.238629 0)
(1.12712 0.241471 0)
(1.13357 0.242528 0)
(1.13877 0.241972 0)
(1.14273 0.239971 0)
(1.1455 0.236687 0)
(1.14713 0.232271 0)
(1.1477 0.226861 0)
(1.14731 0.22058 0)
(1.14604 0.213541 0)
(1.144 0.205843 0)
(1.14129 0.197572 0)
(1.138 0.188805 0)
(1.13424 0.179612 0)
(1.13009 0.170057 0)
(1.12565 0.1602 0)
(1.121 0.150103 0)
(1.11622 0.139833 0)
(1.11138 0.129465 0)
(1.10654 0.119094 0)
(1.10177 0.108837 0)
(1.0971 0.0988503 0)
(1.09259 0.0893441 0)
(1.08827 0.0806024 0)
(1.08407 0.0730114 0)
(1.07983 0.0671021 0)
(1.07675 0.0636309 0)
(1.00026 0.0117113 0)
(1.00203 0.0356098 0)
(1.006 0.0595074 0)
(1.01189 0.0829521 0)
(1.0194 0.105537 0)
(1.02829 0.126896 0)
(1.03826 0.146719 0)
(1.04897 0.164762 0)
(1.06009 0.180848 0)
(1.0713 0.194871 0)
(1.08231 0.206784 0)
(1.09287 0.216594 0)
(1.10277 0.224352 0)
(1.11183 0.230144 0)
(1.11994 0.234081 0)
(1.127 0.236289 0)
(1.13297 0.236904 0)
(1.13784 0.236063 0)
(1.14161 0.233903 0)
(1.14432 0.230556 0)
(1.14603 0.226144 0)
(1.14679 0.220781 0)
(1.14669 0.214572 0)
(1.1458 0.207612 0)
(1.14421 0.199985 0)
(1.14202 0.19177 0)
(1.13929 0.183038 0)
(1.13613 0.173856 0)
(1.1326 0.164288 0)
(1.1288 0.154402 0)
(1.12479 0.144268 0)
(1.12064 0.13397 0)
(1.11642 0.123607 0)
(1.11218 0.113305 0)
(1.10798 0.10323 0)
(1.10384 0.0936013 0)
(1.09983 0.0847168 0)
(1.09586 0.0769796 0)
(1.09181 0.0709423 0)
(1.08889 0.0673909 0)
(1.00023 0.010777 0)
(1.00177 0.0327968 0)
(1.00525 0.0548874 0)
(1.01044 0.0766708 0)
(1.01711 0.0978015 0)
(1.02506 0.117961 0)
(1.03407 0.13687 0)
(1.04384 0.154299 0)
(1.05411 0.170072 0)
(1.0646 0.184065 0)
(1.07505 0.196206 0)
(1.08523 0.206472 0)
(1.09493 0.214874 0)
(1.104 0.221462 0)
(1.11229 0.226305 0)
(1.11971 0.229496 0)
(1.12619 0.231136 0)
(1.13171 0.231334 0)
(1.13623 0.230203 0)
(1.13979 0.227853 0)
(1.1424 0.224391 0)
(1.14412 0.219919 0)
(1.145 0.214531 0)
(1.1451 0.208317 0)
(1.14449 0.201357 0)
(1.14326 0.193729 0)
(1.14146 0.185502 0)
(1.13918 0.176746 0)
(1.1365 0.167528 0)
(1.13347 0.157916 0)
(1.13019 0.147989 0)
(1.1267 0.137832 0)
(1.12307 0.127551 0)
(1.11935 0.11728 0)
(1.11559 0.107192 0)
(1.11183 0.0975144 0)
(1.10812 0.0885571 0)
(1.10439 0.0807365 0)
(1.10054 0.0746221 0)
(1.09779 0.0710219 0)
(1.0002 0.00996165 0)
(1.00154 0.0303327 0)
(1.0046 0.0508218 0)
(1.00918 0.0711118 0)
(1.0151 0.0909082 0)
(1.02221 0.109935 0)
(1.03032 0.127942 0)
(1.0392 0.144719 0)
(1.04863 0.160092 0)
(1.05836 0.173933 0)
(1.06818 0.186155 0)
(1.07787 0.196709 0)
(1.08724 0.205581 0)
(1.09614 0.212787 0)
(1.10442 0.218368 0)
(1.11199 0.222385 0)
(1.11877 0.224909 0)
(1.1247 0.226025 0)
(1.12976 0.22582 0)
(1.13394 0.224386 0)
(1.13725 0.221812 0)
(1.13973 0.218187 0)
(1.1414 0.213595 0)
(1.14232 0.208118 0)
(1.14254 0.20183 0)
(1.14213 0.194805 0)
(1.14114 0.187112 0)
(1.13965 0.178819 0)
(1.13772 0.169995 0)
(1.1354 0.16071 0)
(1.13277 0.151045 0)
(1.12989 0.141091 0)
(1.12681 0.130957 0)
(1.12358 0.120784 0)
(1.12024 0.110749 0)
(1.11685 0.10109 0)
(1.11344 0.0921236 0)
(1.10995 0.0842777 0)
(1.1063 0.0781338 0)
(1.10373 0.0745138 0)
(1.00017 0.00924865 0)
(1.00135 0.0281707 0)
(1.00404 0.0472406 0)
(1.00808 0.0661907 0)
(1.01333 0.0847699 0)
(1.01968 0.102738 0)
(1.02697 0.119875 0)
(1.03501 0.135986 0)
(1.04362 0.150909 0)
(1.0526 0.164512 0)
(1.06174 0.176701 0)
(1.07087 0.18741 0)
(1.07981 0.196607 0)
(1.0884 0.204283 0)
(1.09652 0.210453 0)
(1.10406 0.215153 0)
(1.11094 0.21843 0)
(1.1171 0.220345 0)
(1.12249 0.220964 0)
(1.1271 0.220358 0)
(1.13092 0.218603 0)
(1.13397 0.215771 0)
(1.13627 0.211938 0)
(1.13784 0.207173 0)
(1.13875 0.201547 0)
(1.13902 0.195128 0)
(1.13872 0.187982 0)
(1.13791 0.180175 0)
(1.13663 0.171776 0)
(1.13494 0.162857 0)
(1.1329 0.153499 0)
(1.13057 0.143797 0)
(1.12799 0.133864 0)
(1.12521 0.123844 0)
(1.12227 0.113922 0)
(1.11922 0.10434 0)
(1.1161 0.0954221 0)
(1.11285 0.0876033 0)
(1.10939 0.0814729 0)
(1.10701 0.0778596 0)
(1.00015 0.00862432 0)
(1.00118 0.0262717 0)
(1.00355 0.0440841 0)
(1.00711 0.0618345 0)
(1.01177 0.0793082 0)
(1.01743 0.0962973 0)
(1.02397 0.112606 0)
(1.03123 0.12806 0)
(1.03906 0.142504 0)
(1.04729 0.155813 0)
(1.05575 0.167885 0)
(1.06426 0.178648 0)
(1.07269 0.188052 0)
(1.08088 0.196073 0)
(1.08872 0.202706 0)
(1.0961 0.207964 0)
(1.10293 0.211874 0)
(1.10914 0.214476 0)
(1.1147 0.215818 0)
(1.11956 0.215954 0)
(1.12372 0.214943 0)
(1.12717 0.212844 0)
(1.12993 0.209722 0)
(1.13201 0.205636 0)
(1.13345 0.200651 0)
(1.13428 0.194828 0)
(1.13455 0.188229 0)
(1.1343 0.180918 0)
(1.13357 0.172962 0)
(1.13243 0.164434 0)
(1.1309 0.155417 0)
(1.12906 0.146005 0)
(1.12692 0.136316 0)
(1.12455 0.126498 0)
(1.12198 0.116737 0)
(1.11925 0.107283 0)
(1.1164 0.0984634 0)
(1.11337 0.0907173 0)
(1.11012 0.0846381 0)
(1.10792 0.0810547 0)
(1.00013 0.00807715 0)
(1.00104 0.0246026 0)
(1.00312 0.0413008 0)
(1.00627 0.0579788 0)
(1.0104 0.0744527 0)
(1.01544 0.090542 0)
(1.02129 0.106074 0)
(1.02782 0.120891 0)
(1.03491 0.13485 0)
(1.04242 0.147829 0)
(1.05018 0.159728 0)
(1.05807 0.170467 0)
(1.06594 0.179988 0)
(1.07366 0.188253 0)
(1.08112 0.19524 0)
(1.08822 0.200947 0)
(1.09488 0.205384 0)
(1.10102 0.208572 0)
(1.1066 0.210543 0)
(1.11157 0.211335 0)
(1.11591 0.210993 0)
(1.11962 0.209564 0)
(1.12268 0.207099 0)
(1.12513 0.203652 0)
(1.12697 0.199277 0)
(1.12823 0.194029 0)
(1.12895 0.187967 0)
(1.12915 0.181151 0)
(1.12889 0.173647 0)
(1.12819 0.165526 0)
(1.12711 0.15687 0)
(1.12568 0.147776 0)
(1.12394 0.138365 0)
(1.12193 0.128784 0)
(1.11969 0.119226 0)
(1.11725 0.109941 0)
(1.11465 0.101261 0)
(1.11184 0.0936268 0)
(1.10878 0.0876307 0)
(1.10676 0.084097 0)
(1.00011 0.00759738 0)
(1.00091 0.0231347 0)
(1.00274 0.0388461 0)
(1.00552 0.0545671 0)
(1.00918 0.07014 0)
(1.01366 0.0854079 0)
(1.01889 0.100219 0)
(1.02475 0.11443 0)
(1.03115 0.12791 0)
(1.03796 0.140545 0)
(1.04505 0.152233 0)
(1.0523 0.162894 0)
(1.05958 0.172461 0)
(1.06678 0.180888 0)
(1.07381 0.188143 0)
(1.08055 0.194207 0)
(1.08693 0.199077 0)
(1.09289 0.20276 0)
(1.09836 0.205273 0)
(1.10331 0.206641 0)
(1.10771 0.206894 0)
(1.11153 0.20607 0)
(1.11479 0.204208 0)
(1.11746 0.201353 0)
(1.11958 0.197551 0)
(1.12115 0.192851 0)
(1.12221 0.187308 0)
(1.12277 0.180977 0)
(1.12287 0.173922 0)
(1.12254 0.166212 0)
(1.12182 0.15793 0)
(1.12074 0.149173 0)
(1.11934 0.140061 0)
(1.11765 0.130746 0)
(1.1157 0.121421 0)
(1.11352 0.112339 0)
(1.11115 0.103832 0)
(1.10854 0.0963408 0)
(1.10567 0.090454 0)
(1.10382 0.0869861 0)
(1.0001 0.00717655 0)
(1.0008 0.0218435 0)
(1.00241 0.036681 0)
(1.00487 0.0515491 0)
(1.00811 0.0663126 0)
(1.01209 0.0808351 0)
(1.01675 0.0949824 0)
(1.022 0.108626 0)
(1.02775 0.121646 0)
(1.03389 0.133933 0)
(1.04033 0.145391 0)
(1.04694 0.155936 0)
(1.05363 0.1655 0)
(1.06029 0.174027 0)
(1.06682 0.181477 0)
(1.07314 0.187822 0)
(1.07918 0.193046 0)
(1.08486 0.197144 0)
(1.09014 0.200121 0)
(1.09496 0.201989 0)
(1.0993 0.202769 0)
(1.10313 0.202485 0)
(1.10645 0.20117 0)
(1.10925 0.198858 0)
(1.11153 0.195588 0)
(1.11331 0.191404 0)
(1.1146 0.186354 0)
(1.11542 0.18049 0)
(1.1158 0.173874 0)
(1.11576 0.166572 0)
(1.11533 0.158666 0)
(1.11454 0.150255 0)
(1.11342 0.141457 0)
(1.112 0.132427 0)
(1.1103 0.123357 0)
(1.10835 0.114502 0)
(1.1062 0.106194 0)
(1.10378 0.0988701 0)
(1.10108 0.093113 0)
(1.09941 0.0897232 0)
(1.00009 0.00680721 0)
(1.0007 0.0207067 0)
(1.00213 0.0347703 0)
(1.0043 0.0488794 0)
(1.00717 0.062918 0)
(1.0107 0.0767679 0)
(1.01485 0.0903102 0)
(1.01953 0.103429 0)
(1.02468 0.116015 0)
(1.0302 0.127965 0)
(1.03601 0.139185 0)
(1.04201 0.149592 0)
(1.0481 0.159116 0)
(1.05419 0.167697 0)
(1.06021 0.175286 0)
(1.06607 0.181849 0)
(1.0717 0.187361 0)
(1.07704 0.191805 0)
(1.08204 0.195176 0)
(1.08665 0.197478 0)
(1.09084 0.198719 0)
(1.09459 0.198916 0)
(1.09788 0.198091 0)
(1.1007 0.196272 0)
(1.10305 0.193491 0)
(1.10494 0.189786 0)
(1.10637 0.185199 0)
(1.10737 0.179779 0)
(1.10794 0.173584 0)
(1.10812 0.16668 0)
(1.10791 0.159146 0)
(1.10735 0.151081 0)
(1.10646 0.142604 0)
(1.10526 0.133868 0)
(1.10378 0.125068 0)
(1.10204 0.116457 0)
(1.10007 0.108365 0)
(1.09782 0.101226 0)
(1.0953 0.0956134 0)
(1.09379 0.0923108 0)
(1.00008 0.00648262 0)
(1.00062 0.0197045 0)
(1.00188 0.0330822 0)
(1.0038 0.0465164 0)
(1.00634 0.0599081 0)
(1.00948 0.0731544 0)
(1.01316 0.08615 0)
(1.01734 0.0987905 0)
(1.02193 0.110974 0)
(1.02687 0.122604 0)
(1.03208 0.13359 0)
(1.03748 0.14385 0)
(1.04298 0.153312 0)
(1.04852 0.161913 0)
(1.054 0.1696 0)
(1.05937 0.176331 0)
(1.06456 0.182074 0)
(1.06951 0.186806 0)
(1.07417 0.190511 0)
(1.07851 0.193185 0)
(1.08248 0.194828 0)
(1.08606 0.195448 0)
(1.08924 0.195061 0)
(1.092 0.193686 0)
(1.09434 0.191349 0)
(1.09625 0.188083 0)
(1.09775 0.183926 0)
(1.09885 0.178922 0)
(1.09955 0.173126 0)
(1.09987 0.166603 0)
(1.09982 0.15943 0)
(1.09944 0.151704 0)
(1.09873 0.143546 0)
(1.09772 0.135108 0)
(1.09641 0.126584 0)
(1.09485 0.118227 0)
(1.09305 0.110363 0)
(1.09096 0.10342 0)
(1.08861 0.0979615 0)
(1.08725 0.094752 0)
(1.00007 0.00619647 0)
(1.00055 0.0188181 0)
(1.00166 0.0315871 0)
(1.00337 0.0444215 0)
(1.00563 0.0572376 0)
(1.00841 0.0699457 0)
(1.01169 0.0824521 0)
(1.01539 0.0946613 0)
(1.01948 0.106479 0)
(1.02388 0.117813 0)
(1.02853 0.128577 0)
(1.03336 0.13869 0)
(1.03829 0.148078 0)
(1.04327 0.156678 0)
(1.04822 0.164432 0)
(1.05308 0.171293 0)
(1.0578 0.177223 0)
(1.06233 0.182192 0)
(1.06662 0.18618 0)
(1.07062 0.189172 0)
(1.07432 0.191163 0)
(1.07768 0.192154 0)
(1.08068 0.192153 0)
(1.08331 0.191174 0)
(1.08557 0.189237 0)
(1.08745 0.18637 0)
(1.08894 0.182606 0)
(1.09007 0.177987 0)
(1.09083 0.172565 0)
(1.09124 0.166401 0)
(1.09131 0.159572 0)
(1.09106 0.152174 0)
(1.09049 0.144327 0)
(1.08962 0.136183 0)
(1.08847 0.127935 0)
(1.08706 0.119834 0)
(1.08541 0.112203 0)
(1.08347 0.105463 0)
(1.08126 0.100164 0)
(1.08006 0.0970507 0)
(1.00006 0.00594261 0)
(1.00049 0.0180295 0)
(1.00149 0.0302564 0)
(1.00301 0.0425579 0)
(1.00502 0.0548638 0)
(1.0075 0.0670957 0)
(1.01041 0.0791688 0)
(1.0137 0.0909954 0)
(1.01732 0.102486 0)
(1.02122 0.113554 0)
(1.02535 0.124115 0)
(1.02963 0.134088 0)
(1.03402 0.1434 0)
(1.03846 0.151985 0)
(1.04288 0.159784 0)
(1.04724 0.166746 0)
(1.05148 0.172828 0)
(1.05556 0.177995 0)
(1.05945 0.182219 0)
(1.06309 0.185483 0)
(1.06647 0.187774 0)
(1.06956 0.189088 0)
(1.07234 0.189425 0)
(1.07479 0.188796 0)
(1.07691 0.187216 0)
(1.0787 0.184708 0)
(1.08014 0.1813 0)
(1.08125 0.177033 0)
(1.08203 0.171954 0)
(1.08248 0.166124 0)
(1.08261 0.159618 0)
(1.08244 0.152532 0)
(1.08197 0.144983 0)
(1.08122 0.137124 0)
(1.0802 0.129147 0)
(1.07892 0.1213 0)
(1.0774 0.113902 0)
(1.0756 0.107364 0)
(1.07354 0.102227 0)
(1.07249 0.0992108 0)
(1.00005 0.00571471 0)
(1.00044 0.0173206 0)
(1.00135 0.0290622 0)
(1.00272 0.0408902 0)
(1.00453 0.0527461 0)
(1.00674 0.0645603 0)
(1.00932 0.0762551 0)
(1.01224 0.0877478 0)
(1.01544 0.0989536 0)
(1.01889 0.109788 0)
(1.02252 0.120168 0)
(1.0263 0.130014 0)
(1.03018 0.139255 0)
(1.03409 0.14782 0)
(1.038 0.155651 0)
(1.04186 0.162692 0)
(1.04563 0.168897 0)
(1.04926 0.174228 0)
(1.05273 0.178653 0)
(1.05599 0.182147 0)
(1.05903 0.184696 0)
(1.06182 0.186287 0)
(1.06434 0.18692 0)
(1.06658 0.186598 0)
(1.06853 0.185333 0)
(1.07018 0.183143 0)
(1.07153 0.180055 0)
(1.07258 0.176105 0)
(1.07333 0.171338 0)
(1.07378 0.165815 0)
(1.07394 0.159608 0)
(1.07383 0.152812 0)
(1.07343 0.145545 0)
(1.07277 0.137957 0)
(1.07185 0.13024 0)
(1.07069 0.12264 0)
(1.0693 0.115469 0)
(1.06762 0.109133 0)
(1.06571 0.104156 0)
(1.06479 0.101237 0)
(1.00005 0.00550581 0)
(1.00041 0.0166723 0)
(1.00125 0.027976 0)
(1.0025 0.0393834 0)
(1.00414 0.0508451 0)
(1.00613 0.0622977 0)
(1.00843 0.0736676 0)
(1.01101 0.0848753 0)
(1.01384 0.0958381 0)
(1.01687 0.106473 0)
(1.02006 0.116699 0)
(1.02337 0.126437 0)
(1.02676 0.135614 0)
(1.03018 0.14416 0)
(1.0336 0.152014 0)
(1.03698 0.15912 0)
(1.04029 0.165427 0)
(1.04348 0.170895 0)
(1.04653 0.175488 0)
(1.04941 0.179179 0)
(1.0521 0.181946 0)
(1.05457 0.183777 0)
(1.05682 0.184664 0)
(1.05882 0.184609 0)
(1.06057 0.183619 0)
(1.06206 0.181709 0)
(1.06329 0.178904 0)
(1.06424 0.175237 0)
(1.06494 0.170751 0)
(1.06537 0.165505 0)
(1.06553 0.159571 0)