/*--------------------------------*- C++ -*----------------------------------*\
| =========                 |                                                 |
| \\      /  F ield         | OpenFOAM: The Open Source CFD Toolbox           |
|  \\    /   O peration     | Version:  v2012                                 |
|   \\  /    A nd           | Website:  www.openfoam.com                      |
|    \\/     M anipulation  |                                                 |
\*---------------------------------------------------------------------------*/
FoamFile
{
    version     2.0;
    format      ascii;
    class       volScalarField;
    location    "0.55";
    object      p;
}
// * * * * * * * * * * * * * * * * * * * * * * * * * * * * * * * * * * * * * //

dimensions      [0 2 -2 0 0 0 0];


internalField   nonuniform List<scalar> 
1600
(
1.20322e-07
-4.75856
-7.10934
-8.0809
-8.59593
-8.91012
-9.11206
-9.25126
-9.35399
-9.43361
-9.49749
-9.55012
-9.59439
-9.63227
-9.66513
-9.694
-9.71964
-9.74262
-9.76341
-9.78235
-9.79974
-9.81581
-9.83076
-9.84477
-9.85797
-9.8705
-9.88247
-9.894
-9.90519
-9.91614
-9.92693
-9.93766
-9.94841
-9.95925
-9.97024
-9.98139
-9.99264
-10.004
-10.015
-10.0222
-3.82551
-5.72933
-7.03924
-7.80861
-8.32113
-8.67558
-8.92226
-9.09938
-9.23157
-9.33356
-9.41449
-9.48029
-9.53489
-9.58101
-9.62057
-9.65494
-9.68517
-9.71203
-9.73612
-9.75791
-9.77778
-9.79604
-9.81293
-9.82866
-9.84342
-9.85737
-9.87064
-9.88336
-9.89564
-9.90759
-9.9193
-9.93086
-9.94235
-9.95382
-9.96531
-9.97681
-9.98826
-9.99976
-10.0114
-10.0194
-6.08715
-6.68083
-7.33045
-7.86436
-8.28099
-8.5981
-8.8368
-9.01817
-9.15849
-9.26916
-9.35812
-9.43096
-9.4916
-9.54285
-9.58678
-9.62488
-9.65831
-9.68793
-9.71443
-9.73833
-9.76007
-9.77998
-9.79835
-9.81542
-9.8314
-9.84645
-9.86073
-9.87438
-9.88753
-9.90026
-9.9127
-9.92492
-9.93699
-9.94898
-9.96092
-9.97283
-9.98464
-9.99663
-10.0092
-10.018
-7.23996
-7.3866
-7.71139
-8.05998
-8.36578
-8.61944
-8.8253
-8.99115
-9.12513
-9.23422
-9.32399
-9.39874
-9.46171
-9.51539
-9.56165
-9.60193
-9.63737
-9.66881
-9.69696
-9.72236
-9.74545
-9.76659
-9.78608
-9.80418
-9.82109
-9.83701
-9.85209
-9.86648
-9.88031
-9.89368
-9.90669
-9.91944
-9.932
-9.94444
-9.95681
-9.96913
-9.9814
-9.994
-10.0076
-10.0169
-7.90596
-7.89685
-8.05136
-8.26934
-8.4846
-8.67927
-8.84879
-8.99312
-9.11483
-9.21732
-9.30389
-9.37744
-9.44038
-9.49467
-9.54189
-9.58331
-9.61992
-9.65254
-9.68183
-9.7083
-9.73241
-9.7545
-9.77488
-9.7938
-9.81149
-9.82813
-9.84389
-9.85891
-9.87332
-9.88723
-9.90075
-9.91398
-9.92698
-9.93983
-9.95261
-9.96535
-9.97808
-9.99129
-10.0057
-10.0154
-8.32332
-8.26506
-8.33064
-8.46316
-8.61147
-8.75744
-8.89316
-9.01487
-9.12182
-9.21493
-9.29573
-9.36588
-9.42696
-9.48039
-9.52738
-9.56897
-9.60599
-9.63917
-9.66909
-9.69623
-9.72101
-9.74377
-9.7648
-9.78435
-9.80264
-9.81985
-9.83615
-9.85168
-9.86657
-9.88094
-9.89488
-9.9085
-9.92188
-9.93511
-9.94826
-9.96138
-9.97454
-9.98832
-10.0035
-10.0135
-8.5988
-8.53253
-8.55437
-8.63372
-8.73475
-8.8426
-8.94921
-9.04958
-9.14134
-9.22387
-9.29743
-9.36272
-9.42062
-9.47204
-9.51783
-9.55877
-9.59553
-9.62869
-9.65877
-9.68618
-9.7113
-9.73444
-9.75588
-9.77585
-9.79456
-9.81218
-9.82888
-9.8448
-9.86006
-9.87478
-9.88906
-9.903
-9.91669
-9.93023
-9.94369
-9.95714
-9.97067
-9.98493
-10.0007
-10.0109
-8.79163
-8.73105
-8.73234
-8.77927
-8.8478
-8.92693
-9.00977
-9.09141
-9.16889
-9.24077
-9.30653
-9.3662
-9.4201
-9.46872
-9.51259
-9.55224
-9.58817
-9.62084
-9.65066
-9.67799
-9.70315
-9.72641
-9.74803
-9.76822
-9.78717
-9.80505
-9.82202
-9.8382
-9.85372
-9.86869
-9.88322
-9.8974
-9.91133
-9.9251
-9.93881
-9.95253
-9.96635
-9.98098
-9.99726
-10.0075
-8.93422
-8.88247
-8.87456
-8.90184
-8.94833
-9.00631
-9.0704
-9.13628
-9.20104
-9.2629
-9.32093
-9.37472
-9.42419
-9.46952
-9.51097
-9.54887
-9.58354
-9.61534
-9.64456
-9.67149
-9.69642
-9.71956
-9.74115
-9.76138
-9.78041
-9.7984
-9.8155
-9.83182
-9.8475
-9.86262
-9.87731
-9.89165
-9.90573
-9.91966
-9.93353
-9.94743
-9.96145
-9.97635
-9.99297
-10.0032
-9.0443
-9.00102
-8.98946
-9.00486
-9.03647
-9.07906
-9.12861
-9.18159
-9.23538
-9.2882
-9.33893
-9.38691
-9.43184
-9.47363
-9.51236
-9.54818
-9.58128
-9.61189
-9.64022
-9.66651
-9.69097
-9.71379
-9.73516
-9.75525
-9.77421
-9.79217
-9.80927
-9.82562
-9.84134
-9.85652
-9.87126
-9.88567
-9.89983
-9.91384
-9.92779
-9.94178
-9.9559
-9.97095
-9.98776
-9.99782
-9.13213
-9.09608
-9.08354
-9.09175
-9.11332
-9.14476
-9.18315
-9.22572
-9.27027
-9.31514
-9.35919
-9.40167
-9.44213
-9.48032
-9.51618
-9.54971
-9.58102
-9.61021
-9.63744
-9.66287
-9.68666
-9.70898
-9.72996
-9.74976
-9.7685
-9.7863
-9.80328
-9.81954
-9.8352
-9.85034
-9.86505
-9.87943
-9.89358
-9.90757
-9.92152
-9.9355
-9.94963
-9.96471
-9.98156
-9.99134
-9.20403
-9.1739
-9.16162
-9.16549
-9.18026
-9.20361
-9.23349
-9.26776
-9.30461
-9.34262
-9.38071
-9.41811
-9.4543
-9.48896
-9.52191
-9.55306
-9.58243
-9.61005
-9.63601
-9.66042
-9.68338
-9.70502
-9.72547
-9.74484
-9.76323
-9.78074
-9.79749
-9.81356
-9.82905
-9.84404
-9.85863
-9.8729
-9.88694
-9.90084
-9.91469
-9.92857
-9.94259
-9.95758
-9.97432
-9.98371
-9.26409
-9.23877
-9.2273
-9.22856
-9.2387
-9.25617
-9.27955
-9.30722
-9.33774
-9.3699
-9.40275
-9.43555
-9.46777
-9.49903
-9.52912
-9.55787
-9.58523
-9.61118
-9.63575
-9.65899
-9.681
-9.70184
-9.72163
-9.74044
-9.75836
-9.77547
-9.79187
-9.80764
-9.82287
-9.83763
-9.852
-9.86607
-9.87991
-9.89362
-9.90728
-9.92096
-9.93477
-9.94956
-9.96605
-9.97492
-9.31511
-9.29369
-9.28323
-9.28294
-9.2899
-9.30308
-9.32149
-9.34393
-9.36926
-9.39648
-9.42477
-9.45345
-9.48203
-9.51011
-9.53743
-9.56381
-9.58914
-9.61337
-9.63647
-9.65847
-9.67941
-9.69935
-9.71836
-9.7365
-9.75385
-9.77046
-9.78641
-9.80179
-9.81666
-9.83109
-9.84515
-9.85892
-9.87249
-9.88591
-9.89929
-9.91268
-9.92618
-9.94065
-9.95674
-9.96499
-9.35905
-9.34081
-9.33141
-9.33022
-9.33498
-9.345
-9.35961
-9.3779
-9.39898
-9.42205
-9.4464
-9.47144
-9.49671
-9.52184
-9.54655
-9.57063
-9.59396
-9.61644
-9.63803
-9.65872
-9.67852
-9.69747
-9.71562
-9.733
-9.74967
-9.76569
-9.78111
-9.796
-9.81042
-9.82443
-9.83809
-9.85149
-9.86468
-9.87774
-9.89074
-9.90374
-9.91685
-9.93088
-9.94645
-9.95397
-9.39735
-9.38173
-9.37333
-9.37165
-9.37488
-9.38257
-9.39425
-9.40924
-9.42685
-9.44642
-9.46739
-9.48923
-9.51153
-9.53395
-9.55621
-9.5781
-9.59948
-9.62024
-9.6403
-9.65964
-9.67825
-9.69615
-9.71336
-9.7299
-9.74582
-9.76116
-9.77595
-9.79027
-9.80416
-9.81767
-9.83086
-9.84379
-9.85653
-9.86914
-9.88168
-9.89421
-9.90681
-9.92031
-9.93524
-9.94194
-9.43107
-9.41762
-9.41015
-9.40823
-9.4104
-9.41635
-9.42575
-9.43811
-9.45287
-9.46952
-9.48759
-9.50663
-9.52628
-9.54623
-9.56621
-9.58604
-9.60555
-9.62461
-9.64316
-9.66113
-9.67852
-9.69532
-9.71153
-9.72718
-9.74228
-9.75686
-9.77096
-9.78463
-9.79791
-9.81084
-9.82348
-9.83587
-9.84808
-9.86015
-9.87216
-9.88412
-9.89614
-9.90902
-9.92319
-9.92898
-9.46103
-9.44941
-9.44277
-9.44078
-9.4422
-9.44684
-9.45446
-9.4647
-9.47712
-9.49132
-9.5069
-9.5235
-9.54079
-9.5585
-9.5764
-9.59429
-9.61201
-9.62945
-9.6465
-9.66311
-9.67926
-9.69493
-9.71011
-9.72481
-9.73903
-9.7528
-9.76614
-9.77909
-9.7917
-9.80398
-9.81598
-9.82777
-9.83937
-9.85084
-9.86223
-9.87356
-9.88491
-9.89708
-9.9104
-9.91522
-9.48788
-9.47779
-9.4719
-9.46992
-9.47082
-9.47446
-9.48069
-9.48921
-9.49971
-9.51184
-9.52529
-9.53976
-9.55496
-9.57066
-9.58665
-9.60273
-9.61877
-9.63464
-9.65024
-9.66551
-9.68042
-9.69494
-9.70906
-9.72277
-9.73607
-9.74897
-9.7615
-9.77368
-9.78554
-9.79711
-9.80843
-9.81954
-9.83047
-9.84127
-9.85197
-9.86259
-9.87321
-9.88459
-9.89699
-9.90078
-9.51211
-9.50332
-9.4981
-9.4962
-9.49673
-9.4996
-9.50472
-9.51185
-9.52075
-9.53114
-9.54276
-9.55537
-9.56872
-9.58261
-9.59685
-9.61127
-9.62572
-9.6401
-9.6543
-9.66826
-9.68194
-9.69531
-9.70836
-9.72105
-9.7334
-9.7454
-9.75706
-9.76842
-9.77949
-9.79029
-9.80086
-9.81123
-9.82144
-9.8315
-9.84146
-9.85131
-9.86113
-9.87167
-9.88307
-9.88579
-9.53413
-9.52645
-9.52183
-9.52002
-9.5203
-9.52258
-9.5268
-9.5328
-9.54036
-9.54928
-9.55933
-9.57032
-9.58204
-9.5943
-9.60695
-9.61983
-9.6328
-9.64577
-9.65862
-9.67131
-9.68379
-9.69601
-9.70798
-9.71965
-9.73101
-9.74207
-9.75284
-9.76334
-9.77357
-9.78356
-9.79333
-9.80291
-9.81233
-9.82161
-9.83078
-9.83981
-9.84878
-9.85843
-9.86877
-9.8704
-9.55427
-9.54755
-9.54345
-9.54176
-9.54185
-9.54367
-9.54718
-9.55223
-9.55868
-9.56634
-9.57504
-9.58461
-9.59488
-9.60569
-9.61689
-9.62835
-9.63995
-9.65158
-9.66316
-9.67462
-9.68591
-9.69701
-9.7079
-9.71853
-9.72891
-9.73901
-9.74885
-9.75845
-9.76781
-9.77695
-9.78588
-9.79464
-9.80323
-9.81168
-9.82
-9.82817
-9.83626
-9.84497
-9.85422
-9.85475
-9.5728
-9.5669
-9.56326
-9.5617
-9.56166
-9.56312
-9.56604
-9.57032
-9.57582
-9.58241
-9.58994
-9.59827
-9.60726
-9.61676
-9.62664
-9.6368
-9.64712
-9.6575
-9.66786
-9.67813
-9.68829
-9.69829
-9.7081
-9.7177
-9.72708
-9.73621
-9.74511
-9.75378
-9.76225
-9.7705
-9.77856
-9.78645
-9.79418
-9.80176
-9.80921
-9.81649
-9.82366
-9.83141
-9.83954
-9.83896
-9.58994
-9.58476
-9.58153
-9.58009
-9.57997
-9.58114
-9.58358
-9.5872
-9.59191
-9.59758
-9.60409
-9.61133
-9.61917
-9.6275
-9.63619
-9.64515
-9.65428
-9.66349
-9.67269
-9.68184
-9.69088
-9.6998
-9.70856
-9.71714
-9.72551
-9.73367
-9.74161
-9.74935
-9.75689
-9.76424
-9.7714
-9.7784
-9.78524
-9.79193
-9.79847
-9.80483
-9.81106
-9.81783
-9.82483
-9.82315
-9.60589
-9.60133
-9.59847
-9.59715
-9.59697
-9.59791
-9.59995
-9.60303
-9.60705
-9.61193
-9.61756
-9.62383
-9.63065
-9.63792
-9.64553
-9.65339
-9.66141
-9.66951
-9.67762
-9.68569
-9.69367
-9.70154
-9.70927
-9.71684
-9.72421
-9.73139
-9.73837
-9.74516
-9.75177
-9.75819
-9.76443
-9.77052
-9.77645
-9.78223
-9.78785
-9.79328
-9.79855
-9.80432
-9.81019
-9.80743
-9.62082
-9.61681
-9.61426
-9.61307
-9.61285
-9.6136
-9.61531
-9.61792
-9.62136
-9.62554
-9.63039
-9.63581
-9.64172
-9.64803
-9.65465
-9.6615
-9.6685
-9.67556
-9.68264
-9.68967
-9.69662
-9.70347
-9.7102
-9.71677
-9.72316
-9.72936
-9.73538
-9.74122
-9.74689
-9.75237
-9.75769
-9.76285
-9.76786
-9.77271
-9.7774
-9.78187
-9.78618
-9.79095
-9.7957
-9.79189
-9.63487
-9.63133
-9.62908
-9.62799
-9.62775
-9.62834
-9.62977
-9.63199
-9.63492
-9.6385
-9.64266
-9.64732
-9.65241
-9.65785
-9.66357
-9.66948
-9.67552
-9.68162
-9.68772
-9.69376
-9.69973
-9.7056
-9.71134
-9.71694
-9.72236
-9.7276
-9.73266
-9.73755
-9.74227
-9.74681
-9.75119
-9.75542
-9.7595
-9.76342
-9.76716
-9.77068
-9.77403
-9.7778
-9.78143
-9.77661
-9.64816
-9.64504
-9.64304
-9.64205
-9.6418
-9.64227
-9.64347
-9.64533
-9.64782
-9.65087
-9.65442
-9.6584
-9.66275
-9.6674
-9.67229
-9.67735
-9.6825
-9.68769
-9.69285
-9.69796
-9.70298
-9.7079
-9.71269
-9.71733
-9.7218
-9.72608
-9.73019
-9.73414
-9.73791
-9.74152
-9.74497
-9.74826
-9.7514
-9.75438
-9.75718
-9.75974
-9.76213
-9.76491
-9.76745
-9.76164
-9.6608
-9.65806
-9.65628
-9.65538
-9.65512
-9.65549
-9.65648
-9.65805
-9.66015
-9.66273
-9.66573
-9.66911
-9.67279
-9.67672
-9.68085
-9.6851
-9.68942
-9.69375
-9.69805
-9.70226
-9.70637
-9.71037
-9.71424
-9.71794
-9.72148
-9.72482
-9.72799
-9.731
-9.73384
-9.73651
-9.73902
-9.74138
-9.74358
-9.74562
-9.74747
-9.74909
-9.75052
-9.75233
-9.75379
-9.74705
-9.67289
-9.67046
-9.66888
-9.66806
-9.6678
-9.66809
-9.6689
-9.67021
-9.67197
-9.67414
-9.67666
-9.67949
-9.68256
-9.68584
-9.68926
-9.69277
-9.69631
-9.69984
-9.7033
-9.70666
-9.7099
-9.71301
-9.71597
-9.71877
-9.72138
-9.72381
-9.72605
-9.72813
-9.73004
-9.73178
-9.73336
-9.73478
-9.73605
-9.73715
-9.73807
-9.73875
-9.73924
-9.74009
-9.7405
-9.73285
-9.6845
-9.68235
-9.68093
-9.68019
-9.67993
-9.68015
-9.68082
-9.68191
-9.68337
-9.68517
-9.68726
-9.6896
-9.69212
-9.69479
-9.69756
-9.70038
-9.70319
-9.70595
-9.70862
-9.71116
-9.71356
-9.71581
-9.71789
-9.7198
-9.72152
-9.72303
-9.72437
-9.72553
-9.72652
-9.72733
-9.72798
-9.72848
-9.72882
-9.72899
-9.72898
-9.72873
-9.72829
-9.72821
-9.72759
-9.71906
-9.6957
-9.69377
-9.69249
-9.69182
-9.69158
-9.69174
-9.69229
-9.6932
-9.69441
-9.69589
-9.6976
-9.69948
-9.70151
-9.70362
-9.70579
-9.70795
-9.71008
-9.71212
-9.71402
-9.71578
-9.71737
-9.71878
-9.72001
-9.72105
-9.72188
-9.72251
-9.72294
-9.7232
-9.72327
-9.72317
-9.7229
-9.72247
-9.72189
-9.72114
-9.72021
-9.71905
-9.7177
-9.71669
-9.71507
-9.70571
-9.70655
-9.70479
-9.70363
-9.70302
-9.7028
-9.70293
-9.70339
-9.70415
-9.70515
-9.70635
-9.70772
-9.70921
-9.71077
-9.71238
-9.71398
-9.71554
-9.71701
-9.71836
-9.71954
-9.72054
-9.72133
-9.72193
-9.72233
-9.72252
-9.72249
-9.72223
-9.72177
-9.72113
-9.7203
-9.71928
-9.71809
-9.71675
-9.71526
-9.7136
-9.71177
-9.7097
-9.70745
-9.70554
-9.70295
-9.69277
-9.71708
-9.71544
-9.71438
-9.71383
-9.71364
-9.71377
-9.71417
-9.71482
-9.71565
-9.71662
-9.7177
-9.71883
-9.71997
-9.7211
-9.72218
-9.72317
-9.72403
-9.72472
-9.7252
-9.72545
-9.72548
-9.72529
-9.72486
-9.72421
-9.72333
-9.7222
-9.72086
-9.71932
-9.71759
-9.71566
-9.71357
-9.71132
-9.70892
-9.70636
-9.70363
-9.70067
-9.69754
-9.69475
-9.69122
-9.68026
-9.72731
-9.72574
-9.72476
-9.72429
-9.72416
-9.72431
-9.7247
-9.72527
-9.72598
-9.72676
-9.72758
-9.7284
-9.72917
-9.72986
-9.73046
-9.7309
-9.73117
-9.73122
-9.73102
-9.73056
-9.72983
-9.72885
-9.72763
-9.72615
-9.72441
-9.72242
-9.7202
-9.71777
-9.71514
-9.71231
-9.70931
-9.70615
-9.70286
-9.6994
-9.69578
-9.69194
-9.68796
-9.68431
-9.67988
-9.66817
-9.73722
-9.73568
-9.73477
-9.7344
-9.73437
-9.73459
-9.73501
-9.73556
-9.73618
-9.73682
-9.73743
-9.73797
-9.7384
-9.7387
-9.73883
-9.73877
-9.73847
-9.7379
-9.73703
-9.73587
-9.7344
-9.73265
-9.73063
-9.72833
-9.72575
-9.7229
-9.7198
-9.71647
-9.71294
-9.70921
-9.7053
-9.70125
-9.69705
-9.69271
-9.68821
-9.68351
-9.67869
-9.67422
-9.66892
-9.6565
-9.74677
-9.74517
-9.74434
-9.74413
-9.74425
-9.7446
-9.74511
-9.74569
-9.74628
-9.74682
-9.74726
-9.74756
-9.7477
-9.74763
-9.74734
-9.74678
-9.74594
-9.74477
-9.74326
-9.74141
-9.73921
-9.7367
-9.73389
-9.73077
-9.72735
-9.72364
-9.71966
-9.71544
-9.71101
-9.70638
-9.70157
-9.69662
-9.69152
-9.68629
-9.68093
-9.67539
-9.66977
-9.66452
-9.6584
-9.64531
-9.75589
-9.75425
-9.7536
-9.75365
-9.75403
-9.7546
-9.75528
-9.75596
-9.75658
-9.75708
-9.7574
-9.75752
-9.75739
-9.75699
-9.75629
-9.75527
-9.75389
-9.75213
-9.74998
-9.74743
-9.74451
-9.74124
-9.73762
-9.73367
-9.72939
-9.72479
-9.71991
-9.71478
-9.70943
-9.70388
-9.69814
-9.69226
-9.68625
-9.68012
-9.67388
-9.6675
-9.66108
-9.65508
-9.64818
-9.63441
-9.7644
-9.76309
-9.76296
-9.76353
-9.76437
-9.76532
-9.76628
-9.76716
-9.76788
-9.76839
-9.76863
-9.76858
-9.7682
-9.76746
-9.76635
-9.76483
-9.76289
-9.7605
-9.75765
-9.75436
-9.75064
-9.74652
-9.74203
-9.73716
-9.73192
-9.72634
-9.72046
-9.71433
-9.70796
-9.70137
-9.6946
-9.68769
-9.68067
-9.67354
-9.66634
-9.65905
-9.6518
-9.64501
-9.63735
-9.62332
-9.77011
-9.76951
-9.77013
-9.77133
-9.77264
-9.77394
-9.77514
-9.77617
-9.77696
-9.77745
-9.7776
-9.77737
-9.77674
-9.77568
-9.77417
-9.77219
-9.76973
-9.76676
-9.76328
-9.75932
-9.75489
-9.75002
-9.74474
-9.73906
-9.73299
-9.72657
-9.71984
-9.71284
-9.7056
-9.69815
-9.69052
-9.68275
-9.67488
-9.66694
-9.65895
-9.65092
-9.64302
-9.63557
-9.62723
-9.61499
)
;

boundaryField
{
    movingWall
    {
        type            zeroGradient;
    }
    bottomWall
    {
        type            zeroGradient;
    }
    leftSide
    {
        type            zeroGradient;
    }
    rightSide
    {
        type            zeroGradient;
    }
    frontAndBack
    {
        type            empty;
    }
}


// ************************************************************************* //
