/*--------------------------------*- C++ -*----------------------------------*\
| =========                 |                                                 |
| \\      /  F ield         | OpenFOAM: The Open Source CFD Toolbox           |
|  \\    /   O peration     | Version:  v2012                                 |
|   \\  /    A nd           | Website:  www.openfoam.com                      |
|    \\/     M anipulation  |                                                 |
\*---------------------------------------------------------------------------*/
FoamFile
{
    version     2.0;
    format      ascii;
    class       surfaceScalarField;
    location    "0.55";
    object      phi;
}
// * * * * * * * * * * * * * * * * * * * * * * * * * * * * * * * * * * * * * //

dimensions      [0 3 -1 0 0 0 0];
oriented        oriented;


internalField   nonuniform List<scalar> 
3120
(
1.84441e-05
6.55586e-06
1.28426e-05
5.60159e-06
9.35125e-06
3.4913e-06
7.17639e-06
2.17486e-06
5.77439e-06
1.402e-06
4.83163e-06
9.42767e-07
4.16625e-06
6.6538e-07
3.67415e-06
4.92095e-07
3.29549e-06
3.7866e-07
2.99476e-06
3.00732e-07
2.74991e-06
2.44849e-07
2.5466e-06
2.03311e-07
2.37509e-06
1.71513e-07
2.22851e-06
1.46574e-07
2.1019e-06
1.26614e-07
1.99154e-06
1.10361e-07
1.89461e-06
9.69268e-08
1.80894e-06
8.56731e-08
1.73281e-06
7.61311e-08
1.66486e-06
6.79486e-08
1.604e-06
6.08562e-08
1.54936e-06
5.4645e-08
1.5002e-06
4.91508e-08
1.45596e-06
4.42443e-08
1.41614e-06
3.98233e-08
1.38033e-06
3.5807e-08
1.3482e-06
3.21326e-08
1.31945e-06
2.87517e-08
1.29382e-06
2.56297e-08
1.27107e-06
2.27453e-08
1.25098e-06
2.0092e-08
1.2333e-06
1.76809e-08
1.21775e-06
1.55454e-08
1.204e-06
1.37481e-08
1.19161e-06
1.23905e-08
1.18e-06
1.16178e-08
1.16834e-06
1.16518e-08
1.15544e-06
1.29063e-08
1.13973e-06
1.5705e-08
1.79488e-08
2.5503e-05
6.05287e-06
2.3142e-05
7.9626e-06
1.99924e-05
6.64087e-06
1.71185e-05
5.04879e-06
1.47613e-05
3.75914e-06
1.28937e-05
2.81045e-06
1.14201e-05
2.1389e-06
1.02468e-05
1.66539e-06
9.2991e-06
1.3264e-06
8.52155e-06
1.07829e-06
7.87405e-06
8.92345e-07
7.32755e-06
7.49815e-07
6.86078e-06
6.3828e-07
6.45798e-06
5.49369e-07
6.10728e-06
4.77318e-07
5.79958e-06
4.18063e-07
5.52782e-06
3.68683e-07
5.28646e-06
3.27031e-07
5.07109e-06
2.91504e-07
4.87816e-06
2.60882e-07
4.70479e-06
2.34225e-07
4.54864e-06
2.10795e-07
4.40778e-06
1.90012e-07
4.28061e-06
1.71413e-07
4.1658e-06
1.54631e-07
4.06224e-06
1.39373e-07
3.96896e-06
1.2541e-07
3.88515e-06
1.12564e-07
3.81007e-06
1.00709e-07
3.74305e-06
8.9766e-08
3.68343e-06
7.97055e-08
3.63056e-06
7.05571e-08
3.58369e-06
6.24159e-08
3.54198e-06
5.54564e-08
3.50443e-06
4.99413e-08
3.46983e-06
4.62176e-08
3.43676e-06
4.4715e-08
3.40376e-06
4.59083e-08
3.36988e-06
4.95833e-08
5.28169e-08
2.63558e-05
4.69703e-06
2.63129e-05
8.00555e-06
2.48787e-05
8.07501e-06
2.28665e-05
7.06103e-06
2.07803e-05
5.84539e-06
1.88487e-05
4.74199e-06
1.71496e-05
3.83805e-06
1.56877e-05
3.12728e-06
1.44389e-05
2.57515e-06
1.33716e-05
2.1456e-06
1.24553e-05
1.80865e-06
1.16638e-05
1.54131e-06
1.09756e-05
1.32654e-06
1.03731e-05
1.15181e-06
9.84254e-06
1.0079e-06
9.3726e-06
8.87998e-07
8.95429e-06
7.87e-07
8.58027e-06
7.01042e-07
8.24462e-06
6.27163e-07
7.94243e-06
5.6307e-07
7.66969e-06
5.06962e-07
7.42307e-06
4.57414e-07
7.19979e-06
4.1329e-07
6.99753e-06
3.73676e-07
6.81432e-06
3.37838e-07
6.64851e-06
3.05188e-07
6.49866e-06
2.75259e-07
6.36353e-06
2.47691e-07
6.24202e-06
2.22221e-07
6.13311e-06
1.98682e-07
6.03581e-06
1.77006e-07
5.94914e-06
1.57227e-07
5.87205e-06
1.395e-07
5.80341e-06
1.24101e-07
5.74191e-06
1.11436e-07
5.68613e-06
1.02002e-07
5.63452e-06
9.63282e-08
5.58564e-06
9.47859e-08
5.53851e-06
9.67146e-08
9.88297e-08
2.61648e-05
3.53219e-06
2.69819e-05
7.18848e-06
2.67718e-05
8.28514e-06
2.57896e-05
8.04321e-06
2.43964e-05
7.23859e-06
2.28576e-05
6.28084e-06
2.13329e-05
5.36265e-06
1.99037e-05
4.55655e-06
1.86021e-05
3.87675e-06
1.74341e-05
3.31355e-06
1.63931e-05
2.84967e-06
1.54671e-05
2.46729e-06
1.4643e-05
2.15065e-06
1.39081e-05
1.88673e-06
1.32509e-05
1.66507e-06
1.26615e-05
1.47739e-06
1.21314e-05
1.31718e-06
1.16531e-05
1.17928e-06
1.12207e-05
1.05963e-06
1.08287e-05
9.54976e-07
1.0473e-05
8.62716e-07
1.01497e-05
7.80753e-07
9.85556e-06
7.07384e-07
9.58801e-06
6.41224e-07
9.3447e-06
5.81148e-07
9.12365e-06
5.26243e-07
8.92313e-06
4.75779e-07
8.74163e-06
4.29186e-07
8.57781e-06
3.86044e-07
8.43041e-06
3.46079e-07
8.29826e-06
3.09161e-07
8.18017e-06
2.75319e-07
8.07493e-06
2.44741e-07
7.98125e-06
2.17782e-07
7.89773e-06
1.9495e-07
7.82288e-06
1.76853e-07
7.75512e-06
1.64085e-07
7.69294e-06
1.56971e-07
7.6349e-06
1.54748e-07
1.54349e-07
2.58465e-05
2.6857e-06
2.68506e-05
6.18432e-06
2.72871e-05
7.84865e-06
2.70758e-05
8.25455e-06
2.63696e-05
7.94483e-06
2.53575e-05
7.29287e-06
2.41961e-05
6.52411e-06
2.29931e-05
5.75948e-06
2.18147e-05
5.0552e-06
2.06967e-05
4.43149e-06
1.96561e-05
3.8903e-06
1.86981e-05
3.42531e-06
1.78216e-05
3.02717e-06
1.70221e-05
2.68615e-06
1.6294e-05
2.39324e-06
1.56308e-05
2.14057e-06
1.50265e-05
1.92147e-06
1.44754e-05
1.73038e-06
1.39723e-05
1.56268e-06
1.35128e-05
1.41457e-06
1.30926e-05
1.28289e-06
1.27083e-05
1.16506e-06
1.23568e-05
1.05891e-06
1.20353e-05
9.62661e-07
1.17416e-05
8.7485e-07
1.14736e-05
7.94265e-07
1.12294e-05
7.19928e-07
1.10076e-05
6.5107e-07
1.08065e-05
5.87112e-07
1.06249e-05
5.27668e-07
1.04615e-05
4.72541e-07
1.03151e-05
4.21735e-07
1.01844e-05
3.75455e-07
1.00681e-05
3.34113e-07
9.96471e-06
2.98299e-07
9.87284e-06
2.68721e-07
9.79085e-06
2.46078e-07
9.71702e-06
2.308e-07
9.64941e-06
2.22355e-07
2.18345e-07
2.55903e-05
2.09537e-06
2.65264e-05
5.2483e-06
2.72315e-05
7.14347e-06
2.74934e-05
7.99263e-06
2.73158e-05
8.12251e-06
2.67918e-05
7.81685e-06
2.60335e-05
7.28237e-06
2.51389e-05
6.65407e-06
2.41819e-05
6.01224e-06
2.32132e-05
5.40015e-06
2.22654e-05
4.8381e-06
2.13578e-05
4.333e-06
2.05004e-05
3.88451e-06
1.96978e-05
3.48871e-06
1.89509e-05
3.14019e-06
1.82582e-05
2.83322e-06
1.76174e-05
2.5623e-06
1.70254e-05
2.32242e-06
1.64789e-05
2.10915e-06
1.59748e-05
1.91867e-06
1.551e-05
1.74768e-06
1.50817e-05
1.59334e-06
1.46874e-05
1.45328e-06
1.43246e-05
1.32546e-06
1.39912e-05
1.20817e-06
1.36855e-05
1.09999e-06
1.34057e-05
9.99747e-07
1.31503e-05
9.06509e-07
1.29178e-05
8.19567e-07
1.2707e-05
7.38436e-07
1.25167e-05
6.62856e-07
1.23457e-05
5.92802e-07
1.21926e-05
5.2849e-07
1.20564e-05
4.70376e-07
1.19355e-05
4.19135e-07
1.18286e-05
3.75599e-07
1.17341e-05
3.40645e-07
1.16499e-05
3.14979e-07
1.15737e-05
2.98569e-07
2.89995e-07
2.54156e-05
1.67978e-06
2.62122e-05
4.45166e-06
2.69799e-05
6.37578e-06
2.74883e-05
7.48424e-06
2.76628e-05
7.94806e-06
2.75217e-05
7.95791e-06
2.71257e-05
7.67833e-06
2.65455e-05
7.23428e-06
2.58454e-05
6.7124e-06
2.50771e-05
6.16846e-06
2.42793e-05
5.63586e-06
2.34794e-05
5.13292e-06
2.26956e-05
4.66826e-06
2.19397e-05
4.24461e-06
2.12186e-05
3.86132e-06
2.05359e-05
3.5159e-06
1.98932e-05
3.20505e-06
1.92904e-05
2.92517e-06
1.87269e-05
2.67272e-06
1.82011e-05
2.44439e-06
1.77117e-05
2.23716e-06
1.72567e-05
2.04831e-06
1.68345e-05
1.87546e-06
1.64435e-05
1.71653e-06
1.60819e-05
1.56972e-06
1.57484e-05
1.43352e-06
1.54415e-05
1.30665e-06
1.51599e-05
1.18806e-06
1.49025e-05
1.07697e-06
1.46681e-05
9.72823e-07
1.44557e-05
8.75317e-07
1.42641e-05
7.8441e-07
1.40922e-05
7.00332e-07
1.3939e-05
6.23594e-07
1.38032e-05
5.54969e-07
1.36833e-05
4.95456e-07
1.35778e-05
4.46197e-07
1.34844e-05
4.08318e-07
1.34005e-05
3.82504e-07
3.6854e-07
2.53011e-05
1.37866e-06
2.59573e-05
3.79544e-06
2.66906e-05
5.64254e-06
2.73001e-05
6.87473e-06
2.7683e-05
7.56519e-06
2.78117e-05
7.82922e-06
2.77048e-05
7.78522e-06
2.74029e-05
7.53611e-06
2.69529e-05
7.16246e-06
2.63985e-05
6.72283e-06
2.5777e-05
6.25734e-06
2.5118e-05
5.79198e-06
2.44437e-05
5.34255e-06
2.37704e-05
4.91787e-06
2.31097e-05
4.52208e-06
2.24692e-05
4.15639e-06
2.1854e-05
3.82023e-06
2.12672e-05
3.51197e-06
2.07104e-05
3.22948e-06
2.01844e-05
2.97042e-06
1.96892e-05
2.73241e-06
1.92243e-05
2.51318e-06
1.87891e-05
2.31062e-06
1.83829e-05
2.1228e-06
1.80046e-05
1.94801e-06
1.76533e-05
1.78475e-06
1.73282e-05
1.63175e-06
1.70283e-05
1.48795e-06
1.67528e-05
1.35253e-06
1.65007e-05
1.22492e-06
1.62712e-05
1.10481e-06
1.60635e-05
9.92151e-07
1.58766e-05
8.87222e-07
1.57096e-05
7.906e-07
1.55613e-05
7.03188e-07
1.54306e-05
6.26199e-07
1.53157e-05
5.61121e-07
1.52144e-05
5.0962e-07
1.51236e-05
4.73261e-07
4.5322e-07
2.52253e-05
1.15334e-06
2.57613e-05
3.25949e-06
2.64225e-05
4.98135e-06
2.70496e-05
6.24758e-06
2.75392e-05
7.07561e-06
2.78413e-05
7.52707e-06
2.79463e-05
7.68021e-06
2.78697e-05
7.61279e-06
2.76394e-05
7.39276e-06
2.72876e-05
7.07463e-06
2.68453e-05
6.69964e-06
2.63398e-05
6.29746e-06
2.57938e-05
5.8885e-06
2.52255e-05
5.48616e-06
2.46489e-05
5.09871e-06
2.40745e-05
4.73083e-06
2.351e-05
4.38471e-06
2.2961e-05
4.06096e-06
2.24314e-05
3.7591e-06
2.19237e-05
3.47806e-06
2.14397e-05
3.21641e-06
2.09804e-05
2.97256e-06
2.05461e-05
2.74489e-06
2.0137e-05
2.53183e-06
1.97532e-05
2.33189e-06
1.93942e-05
2.14376e-06
1.90597e-05
1.96624e-06
1.87492e-05
1.79837e-06
1.84624e-05
1.63936e-06
1.81986e-05
1.48869e-06
1.79574e-05
1.34605e-06
1.77381e-05
1.21146e-06
1.75401e-05
1.08526e-06
1.73625e-05
9.68108e-07
1.72046e-05
8.61086e-07
1.70652e-05
7.65667e-07
1.69426e-05
6.83748e-07
1.68345e-05
6.17636e-07
1.67379e-05
5.69895e-07
5.43248e-07
2.51736e-05
9.79773e-07
2.56122e-05
2.82085e-06
2.61925e-05
4.40111e-06
2.67936e-05
5.64645e-06
2.73238e-05
6.54535e-06
2.77265e-05
7.12445e-06
2.79757e-05
7.43095e-06
2.8069e-05
7.51954e-06
2.80184e-05
7.44337e-06
2.78438e-05
7.24917e-06
2.75681e-05
6.97533e-06
2.72138e-05
6.6518e-06
2.68013e-05
6.30103e-06
2.63482e-05
5.93921e-06
2.58693e-05
5.57761e-06
2.53765e-05
5.22368e-06
2.4879e-05
4.88214e-06
2.43843e-05
4.55565e-06
2.3898e-05
4.24548e-06
2.34241e-05
3.95195e-06
2.29658e-05
3.6747e-06
2.25253e-05
3.413e-06
2.21044e-05
3.16589e-06
2.17039e-05
2.93227e-06
2.13248e-05
2.71106e-06
2.09673e-05
2.50119e-06
2.06318e-05
2.30171e-06
2.03184e-05
2.11178e-06
2.0027e-05
1.93075e-06
1.97576e-05
1.75816e-06
1.95098e-05
1.5938e-06
1.92835e-05
1.43778e-06
1.90783e-05
1.2905e-06
1.88936e-05
1.15279e-06
1.87288e-05
1.02591e-06
1.85828e-05
9.11648e-07
1.84542e-05
8.1236e-07
1.83407e-05
7.31067e-07
1.82392e-05
6.71417e-07
6.37805e-07
2.5137e-05
8.42764e-07
2.54984e-05
2.45947e-06
2.60013e-05
3.89822e-06
2.65563e-05
5.09144e-06
2.70871e-05
6.01451e-06
2.75388e-05
6.67278e-06
2.78785e-05
7.0913e-06
2.80922e-05
7.3058e-06
2.81802e-05
7.35538e-06
2.81518e-05
7.27756e-06
2.80215e-05
7.10559e-06
2.7806e-05
6.86734e-06
2.75219e-05
6.58514e-06
2.71848e-05
6.2763e-06
2.68086e-05
5.95378e-06
2.64053e-05
5.627e-06
2.59848e-05
5.30258e-06
2.55555e-05
4.98498e-06
2.5124e-05
4.67704e-06
2.46955e-05
4.38038e-06
2.42744e-05
4.09579e-06
2.3864e-05
3.82344e-06
2.34668e-05
3.5631e-06
2.30848e-05
3.31428e-06
2.27195e-05
3.07636e-06
2.2372e-05
2.84863e-06
2.20433e-05
2.63044e-06
2.17339e-05
2.42117e-06
2.14443e-05
2.22034e-06
2.11748e-05
2.02764e-06
2.09256e-05
1.84301e-06
2.06968e-05
1.66665e-06
2.04882e-05
1.4991e-06
2.02996e-05
1.34137e-06
2.01306e-05
1.19494e-06
1.99803e-05
1.06193e-06
1.98474e-05
9.45215e-07
1.97299e-05
8.48576e-07
1.96245e-05
7.76804e-07
7.36047e-07
2.51103e-05
7.32454e-07
2.54104e-05
2.15936e-06
2.58442e-05
3.46445e-06
2.6346e-05
4.58963e-06
2.68547e-05
5.50582e-06
2.73211e-05
6.20634e-06
2.7711e-05
6.7014e-06
2.80045e-05
7.01234e-06
2.81937e-05
7.16615e-06
2.82799e-05
7.19136e-06
2.82703e-05
7.11519e-06
2.81757e-05
6.96198e-06
2.80084e-05
6.75244e-06
2.77811e-05
6.50361e-06
2.75058e-05
6.22901e-06
2.71937e-05
5.93911e-06
2.68545e-05
5.64182e-06
2.64966e-05
5.34291e-06
2.61271e-05
5.04648e-06
2.57522e-05
4.75534e-06
2.53767e-05
4.4713e-06
2.50047e-05
4.19541e-06
2.46396e-05
3.92819e-06
2.42841e-05
3.66979e-06
2.39404e-05
3.42008e-06
2.36102e-05
3.1788e-06
2.3295e-05
2.94563e-06
2.29959e-05
2.72024e-06
2.27139e-05
2.50237e-06
2.24496e-05
2.29192e-06
2.22037e-05
2.08897e-06
2.19764e-05
1.89389e-06
2.17681e-05
1.70741e-06
2.15788e-05
1.53069e-06
2.14082e-05
1.3655e-06
2.12558e-05
1.21433e-06
2.11205e-05
1.08058e-06
2.10002e-05
9.68823e-07
2.0892e-05
8.85021e-07
8.37118e-07
2.50902e-05
6.42208e-07
2.53415e-05
1.90807e-06
2.57154e-05
3.09062e-06
2.61637e-05
4.14126e-06
2.66386e-05
5.03095e-06
2.70981e-05
5.74689e-06
2.75096e-05
6.28987e-06
2.78511e-05
6.67088e-06
2.81099e-05
6.90727e-06
2.82817e-05
7.01959e-06
2.83679e-05
7.02904e-06
2.8374e-05
6.95582e-06
2.83083e-05
6.81816e-06
2.81801e-05
6.63179e-06
2.79992e-05
6.4099e-06
2.77751e-05
6.16322e-06
2.75167e-05
5.90027e-06
2.72319e-05
5.62767e-06
2.69279e-05
5.35043e-06
2.6611e-05
5.07227e-06
2.62865e-05
4.79586e-06
2.59588e-05
4.52304e-06
2.5632e-05
4.25504e-06
2.53092e-05
3.99259e-06
2.49931e-05
3.7361e-06
2.46862e-05
3.48576e-06
2.43902e-05
3.2416e-06
2.41068e-05
3.00362e-06
2.38374e-05
2.77184e-06
2.35829e-05
2.54635e-06
2.33444e-05
2.32746e-06
2.31226e-05
2.11572e-06
2.2918e-05
1.91204e-06
2.27309e-05
1.71782e-06
2.25613e-05
1.53511e-06
2.24088e-05
1.36678e-06
2.22726e-05
1.21679e-06
2.21509e-05
1.09049e-06
2.20409e-05
9.95038e-07
9.40165e-07
2.50748e-05
5.67409e-07
2.52868e-05
1.69604e-06
2.56094e-05
2.76802e-06
2.60074e-05
3.74327e-06
2.64435e-05
4.59485e-06
2.6883e-05
5.30744e-06
2.72966e-05
5.87624e-06
2.76624e-05
6.30511e-06
2.79655e-05
6.60414e-06
2.81979e-05
6.78724e-06
2.83567e-05
6.87018e-06
2.84436e-05
6.86898e-06
2.84628e-05
6.79894e-06
2.84206e-05
6.67394e-06
2.83244e-05
6.50616e-06
2.81816e-05
6.30595e-06
2.8e-05
6.0819e-06
2.77867e-05
5.841e-06
2.75483e-05
5.58881e-06
2.72909e-05
5.32966e-06
2.70199e-05
5.06688e-06
2.674e-05
4.80295e-06
2.64554e-05
4.53969e-06
2.61695e-05
4.27839e-06
2.58857e-05
4.01994e-06
2.56065e-05
3.76497e-06
2.53342e-05
3.51387e-06
2.50709e-05
3.26697e-06
2.48182e-05
3.02457e-06
2.45775e-05
2.78702e-06
2.43501e-05
2.55484e-06
2.4137e-05
2.32879e-06
2.39391e-05
2.11e-06
2.37568e-05
1.90011e-06
2.35904e-05
1.70147e-06
2.34398e-05
1.51735e-06
2.33044e-05
1.35225e-06
2.31826e-05
1.21232e-06
2.30717e-05
1.10586e-06
1.04436e-06
2.50627e-05
5.04742e-07
2.52428e-05
1.51588e-06
2.55219e-05
2.489e-06
2.58739e-05
3.3912e-06
2.62702e-05
4.19853e-06
2.66825e-05
4.89517e-06
2.70855e-05
5.47328e-06
2.74585e-05
5.9321e-06
2.77862e-05
6.27641e-06
2.80585e-05
6.51493e-06
2.82699e-05
6.65877e-06
2.84188e-05
6.72012e-06
2.85064e-05
6.71129e-06
2.85363e-05
6.64404e-06
2.85134e-05
6.52912e-06
2.84432e-05
6.37607e-06
2.8332e-05
6.19312e-06
2.81858e-05
5.98722e-06
2.80105e-05
5.76412e-06
2.78116e-05
5.52851e-06
2.75944e-05
5.28413e-06
2.73634e-05
5.03394e-06
2.71228e-05
4.78021e-06
2.68765e-05
4.5247e-06
2.66277e-05
4.26873e-06
2.63794e-05
4.0133e-06
2.61341e-05
3.75917e-06
2.58941e-05
3.50698e-06
2.56613e-05
3.25731e-06
2.54376e-05
3.01077e-06
2.52243e-05
2.76811e-06
2.50228e-05
2.53031e-06
2.48341e-05
2.29873e-06
2.46589e-05
2.07527e-06
2.44978e-05
1.86258e-06
2.43508e-05
1.66432e-06
2.42175e-05
1.48554e-06
2.40967e-05
1.33314e-06
2.3986e-05
1.21654e-06
1.14889e-06
2.5053e-05
4.51764e-07
2.5207e-05
1.36184e-06
2.5449e-05
2.24699e-06
2.576e-05
3.08026e-06
2.61177e-05
3.8408e-06
2.64994e-05
4.51344e-06
2.68838e-05
5.08896e-06
2.72522e-05
5.56371e-06
2.75897e-05
5.93882e-06
2.78856e-05
6.21906e-06
2.81326e-05
6.41177e-06
2.8327e-05
6.52577e-06
2.84677e-05
6.57061e-06
2.85558e-05
6.55587e-06
2.85943e-05
6.49069e-06
2.85868e-05
6.38352e-06
2.8538e-05
6.2419e-06
2.84528e-05
6.07246e-06
2.83361e-05
5.88084e-06
2.81928e-05
5.67182e-06
2.80275e-05
5.44936e-06
2.78448e-05
5.21669e-06
2.76486e-05
4.97643e-06
2.74426e-05
4.73067e-06
2.72303e-05
4.48108e-06
2.70146e-05
4.22898e-06
2.67983e-05
3.97545e-06
2.65839e-05
3.72143e-06
2.63734e-05
3.46775e-06
2.61689e-05
3.21527e-06
2.59721e-05
2.96498e-06
2.57843e-05
2.71808e-06
2.56069e-05
2.47617e-06
2.54407e-05
2.2414e-06
2.52866e-05
2.01672e-06
2.51447e-05
1.80619e-06
2.50149e-05
1.61537e-06
2.48961e-05
1.4519e-06
2.47865e-05
1.32621e-06
1.25303e-06
2.50451e-05
4.06637e-07
2.51776e-05
1.2294e-06
2.53881e-05
2.03647e-06
2.56626e-05
2.80575e-06
2.59841e-05
3.51932e-06
2.63343e-05
4.16322e-06
2.66954e-05
4.72782e-06
2.70513e-05
5.20788e-06
2.7388e-05
5.60208e-06
2.76947e-05
5.91231e-06
2.79636e-05
6.14294e-06
2.81893e-05
6.30002e-06
2.83693e-05
6.39064e-06
2.85029e-05
6.42229e-06
2.85911e-05
6.40251e-06
2.86361e-05
6.3385e-06
2.8641e-05
6.23695e-06
2.86096e-05
6.10391e-06
2.85457e-05
5.94471e-06
2.84535e-05
5.76402e-06
2.83371e-05
5.56579e-06
2.82004e-05
5.3534e-06
2.80472e-05
5.12964e-06
2.7881e-05
4.89684e-06
2.77052e-05
4.6569e-06
2.75227e-05
4.41143e-06
2.73364e-05
4.16177e-06
2.71487e-05
3.90907e-06
2.69621e-05
3.65444e-06
2.67784e-05
3.39896e-06
2.65995e-05
3.14382e-06
2.64271e-05
2.89047e-06
2.62626e-05
2.64073e-06
2.6107e-05
2.397e-06
2.59612e-05
2.16252e-06
2.58256e-05
1.94172e-06
2.57003e-05
1.74068e-06
2.55846e-05
1.56767e-06
2.54767e-05
1.43409e-06
1.35607e-06
2.50387e-05
3.6795e-07
2.51531e-05
1.11499e-06
2.53367e-05
1.85285e-06
2.55791e-05
2.56337e-06
2.58672e-05
3.23126e-06
2.61864e-05
3.84398e-06
2.65221e-05
4.39212e-06
2.68603e-05
4.86966e-06
2.71887e-05
5.27373e-06
2.74968e-05
5.60419e-06
2.77765e-05
5.86319e-06
2.8022e-05
6.05454e-06
2.82294e-05
6.18321e-06
2.83968e-05
6.25487e-06
2.85239e-05
6.27547e-06
2.86114e-05
6.25099e-06
2.86612e-05
6.18714e-06
2.86758e-05
6.08928e-06
2.86583e-05
5.96227e-06
2.86118e-05
5.81048e-06
2.85399e-05
5.63775e-06
2.84459e-05
5.4474e-06
2.83332e-05
5.24231e-06
2.82051e-05
5.0249e-06
2.80648e-05
4.79727e-06
2.7915e-05
4.56117e-06
2.77586e-05
4.31817e-06
2.75981e-05
4.06961e-06
2.74357e-05
3.8168e-06
2.72737e-05
3.56103e-06
2.71138e-05
3.30371e-06
2.69578e-05
3.04646e-06
2.68072e-05
2.79134e-06
2.66632e-05
2.541e-06
2.65267e-05
2.29894e-06
2.63985e-05
2.06996e-06
2.62786e-05
1.86057e-06
2.61666e-05
1.67967e-06
2.60612e-05
1.5395e-06
1.45741e-06
2.50333e-05
3.34601e-07
2.51326e-05
1.01574e-06
2.52932e-05
1.69228e-06
2.55073e-05
2.34924e-06
2.57649e-05
2.97364e-06
2.60545e-05
3.55437e-06
2.63641e-05
4.08259e-06
2.66817e-05
4.55202e-06
2.69966e-05
4.95888e-06
2.7299e-05
5.3017e-06
2.75813e-05
5.58097e-06
2.78371e-05
5.79874e-06
2.8062e-05
5.95828e-06
2.82532e-05
6.06365e-06
2.84093e-05
6.1194e-06
2.853e-05
6.13028e-06
2.86161e-05
6.10106e-06
2.8669e-05
6.03632e-06
2.8691e-05
5.94035e-06
2.86843e-05
5.81713e-06
2.86518e-05
5.67022e-06
2.85964e-05
5.50283e-06
2.8521e-05
5.31776e-06
2.84284e-05
5.11747e-06
2.83215e-05
4.90412e-06
2.82031e-05
4.67959e-06
2.80757e-05
4.44555e-06
2.79418e-05
4.20354e-06
2.78036e-05
3.95499e-06
2.76633e-05
3.70139e-06
2.75227e-05
3.4443e-06
2.73836e-05
3.18557e-06
2.72475e-05
2.92742e-06
2.71157e-05
2.67274e-06
2.69894e-05
2.42531e-06
2.68691e-05
2.19022e-06
2.67553e-05
1.9744e-06
2.66477e-05
1.78729e-06
2.65453e-05
1.64186e-06
1.55652e-06
2.50289e-05
3.05722e-07
2.51153e-05
9.29327e-07
2.5256e-05
1.55155e-06
2.54453e-05
2.15996e-06
2.56754e-05
2.74355e-06
2.59372e-05
3.29258e-06
2.62208e-05
3.79894e-06
2.65164e-05
4.25643e-06
2.68145e-05
4.66082e-06
2.71064e-05
5.00978e-06
2.73848e-05
5.3026e-06
2.76435e-05
5.54005e-06
2.78777e-05
5.724e-06
2.80842e-05
5.85717e-06
2.82607e-05
5.94289e-06
2.84062e-05
5.98481e-06
2.85205e-05
5.98675e-06
2.86043e-05
5.95251e-06
2.86589e-05
5.88578e-06
2.8686e-05
5.79006e-06
2.86876e-05
5.66858e-06
2.86661e-05
5.52431e-06
2.8624e-05
5.35991e-06
2.85636e-05
5.1778e-06
2.84877e-05
4.98011e-06
2.83985e-05
4.76877e-06
2.82985e-05
4.54553e-06
2.819e-05
4.31202e-06
2.80752e-05
4.06981e-06
2.79561e-05
3.8205e-06
2.78346e-05
3.56584e-06
2.77123e-05
3.3078e-06
2.75909e-05
3.04881e-06
2.74717e-05
2.79195e-06
2.73558e-05
2.54124e-06
2.72439e-05
2.30207e-06
2.71366e-05
2.08171e-06
2.70339e-05
1.89006e-06
2.6935e-05
1.74071e-06
1.65292e-06
2.50251e-05
2.8062e-07
2.51006e-05
8.53876e-07
2.52241e-05
1.42796e-06
2.53916e-05
1.99253e-06
2.55969e-05
2.53825e-06
2.58328e-05
3.05661e-06
2.60915e-05
3.54028e-06
2.63646e-05
3.98336e-06
2.66439e-05
4.38148e-06
2.69219e-05
4.73177e-06
2.71918e-05
5.03275e-06
2.74476e-05
5.2842e-06
2.76847e-05
5.48691e-06
2.78993e-05
5.64254e-06
2.80889e-05
5.75335e-06
2.82517e-05
5.82201e-06
2.8387e-05
5.85148e-06
2.84947e-05
5.84481e-06
2.85753e-05
5.80509e-06
2.86301e-05
5.73529e-06
2.86604e-05
5.63827e-06
2.8668e-05
5.51669e-06
2.86549e-05
5.37304e-06
2.86231e-05
5.20956e-06
2.85749e-05
5.02835e-06
2.85123e-05
4.83132e-06
2.84376e-05
4.62022e-06
2.83529e-05
4.39676e-06
2.82601e-05
4.16257e-06
2.81613e-05
3.91937e-06
2.80581e-05
3.66901e-06
2.79523e-05
3.41361e-06
2.78453e-05
3.15575e-06
2.77386e-05
2.8987e-06
2.76332e-05
2.64668e-06
2.75299e-05
2.40532e-06
2.74294e-05
2.18223e-06
2.73318e-05
1.98766e-06
2.72368e-05
1.8357e-06
1.74626e-06
2.50219e-05
2.58732e-07
2.50879e-05
7.87837e-07
2.51966e-05
1.31927e-06
2.53448e-05
1.84437e-06
2.55278e-05
2.3552e-06
2.57401e-05
2.84438e-06
2.5975e-05
3.30535e-06
2.62257e-05
3.7326e-06
2.64854e-05
4.12181e-06
2.67473e-05
4.46984e-06
2.70054e-05
4.77471e-06
2.72541e-05
5.03548e-06
2.74888e-05
5.25217e-06
2.77059e-05
5.42553e-06
2.79023e-05
5.55695e-06
2.8076e-05
5.64828e-06
2.82258e-05
5.7017e-06
2.8351e-05
5.71957e-06
2.84517e-05
5.70437e-06
2.85284e-05
5.65858e-06
2.85821e-05
5.58464e-06
2.86139e-05
5.48488e-06
2.86254e-05
5.36153e-06
2.86183e-05
5.21668e-06
2.85943e-05
5.05229e-06
2.85555e-05
4.8702e-06
2.85035e-05
4.67216e-06
2.84404e-05
4.45987e-06
2.8368e-05
4.23502e-06
2.8288e-05
3.99938e-06
2.82021e-05
3.7549e-06
2.81119e-05
3.50381e-06
2.80188e-05
3.24882e-06
2.79241e-05
2.99335e-06
2.7829e-05
2.7418e-06
2.77343e-05
2.50003e-06
2.76407e-05
2.27587e-06
2.75484e-05
2.0799e-06
2.74575e-05
1.92656e-06
1.83625e-06
2.50191e-05
2.39605e-07
2.5077e-05
7.2993e-07
2.51727e-05
1.22356e-06
2.53039e-05
1.71321e-06
2.5467e-05
2.19213e-06
2.56575e-05
2.6539e-06
2.58701e-05
3.0927e-06
2.60992e-05
3.50347e-06
2.6339e-05
3.88206e-06
2.65836e-05
4.22524e-06
2.68276e-05
4.53071e-06
2.7066e-05
4.79706e-06
2.72945e-05
5.0237e-06
2.75093e-05
5.21072e-06
2.77075e-05
5.35879e-06
2.78867e-05
5.46905e-06
2.80454e-05
5.54301e-06
2.81825e-05
5.58241e-06
2.82977e-05
5.58917e-06
2.8391e-05
5.56527e-06
2.84629e-05
5.51274e-06
2.85142e-05
5.43359e-06
2.8546e-05
5.32975e-06
2.85596e-05
5.20311e-06
2.85564e-05
5.05547e-06
2.8538e-05
4.88858e-06
2.85061e-05
4.70411e-06
2.84622e-05
4.50374e-06
2.8408e-05
4.28917e-06
2.83452e-05
4.06222e-06
2.82752e-05
3.82489e-06
2.81995e-05
3.5795e-06
2.81195e-05
3.32886e-06
2.80363e-05
3.07652e-06
2.79511e-05
2.82703e-06
2.78647e-05
2.58642e-06
2.77779e-05
2.36272e-06
2.7691e-05
2.16673e-06
2.76044e-05
2.01316e-06
1.92266e-06
2.50167e-05
2.22863e-07
2.50676e-05
6.79085e-07
2.51519e-05
1.13922e-06
2.52681e-05
1.59709e-06
2.54132e-05
2.04695e-06
2.55839e-05
2.48323e-06
2.57758e-05
2.90079e-06
2.59843e-05
3.29502e-06
2.62043e-05
3.662e-06
2.6431e-05
3.99852e-06
2.66596e-05
4.30215e-06
2.68855e-05
4.57114e-06
2.71047e-05
4.80447e-06
2.73137e-05
5.00171e-06
2.75096e-05
5.16298e-06
2.76898e-05
5.28882e-06
2.78526e-05
5.38017e-06
2.79968e-05
5.43823e-06
2.81216e-05
5.46439e-06
2.82266e-05
5.46021e-06
2.83121e-05
5.42729e-06
2.83784e-05
5.3673e-06
2.84262e-05
5.2819e-06
2.84566e-05
5.17275e-06
2.84706e-05
5.04147e-06
2.84695e-05
4.88967e-06
2.84547e-05
4.71894e-06
2.84275e-05
4.5309e-06
2.83894e-05
4.32725e-06
2.83418e-05
4.10979e-06
2.82862e-05
3.88058e-06
2.82237e-05
3.64199e-06
2.81556e-05
3.39692e-06
2.80831e-05
3.14901e-06
2.80072e-05
2.90294e-06
2.79288e-05
2.66487e-06
2.78485e-05
2.44297e-06
2.7767e-05
2.2482e-06
2.76848e-05
2.09541e-06
2.00534e-06
2.50147e-05
2.08193e-07
2.50594e-05
6.34402e-07
2.51337e-05
1.06485e-06
2.52365e-05
1.49429e-06
2.53657e-05
1.91781e-06
2.55183e-05
2.33059e-06
2.5691e-05
2.72808e-06
2.58799e-05
3.10612e-06
2.60809e-05
3.46105e-06
2.62896e-05
3.78978e-06
2.65019e-05
4.0898e-06
2.67139e-05
4.35919e-06
2.69218e-05
4.59661e-06
2.71222e-05
4.80125e-06
2.73124e-05
4.97277e-06
2.749e-05
5.11126e-06
2.7653e-05
5.21717e-06
2.78e-05
5.29121e-06
2.79301e-05
5.33435e-06
2.80426e-05
5.3477e-06
2.81373e-05
5.33252e-06
2.82145e-05
5.29014e-06
2.82745e-05
5.22194e-06
2.83179e-05
5.12933e-06
2.83456e-05
5.01375e-06
2.83586e-05
4.87666e-06
2.8358e-05
4.71955e-06
2.83449e-05
4.54396e-06
2.83206e-05
4.35154e-06
2.82863e-05
4.1441e-06
2.82432e-05
3.92369e-06
2.81925e-05
3.69273e-06
2.81352e-05
3.45419e-06
2.80725e-05
3.21177e-06
2.80052e-05
2.97025e-06
2.79342e-05
2.73588e-06
2.78602e-05
2.51693e-06
2.7784e-05
2.32445e-06
2.77061e-05
2.1733e-06
2.08421e-06
2.50129e-05
1.95333e-07
2.50521e-05
5.95113e-07
2.51177e-05
9.9926e-07
2.52087e-05
1.40331e-06
2.53235e-05
1.80304e-06
2.54598e-05
2.19429e-06
2.56148e-05
2.57304e-06
2.57854e-05
2.93555e-06
2.5968e-05
3.27843e-06
2.61591e-05
3.59874e-06
2.63549e-05
3.89397e-06
2.6552e-05
4.16211e-06
2.6747e-05
4.40159e-06
2.69369e-05
4.61134e-06
2.7119e-05
4.79067e-06
2.7291e-05
4.93929e-06
2.74509e-05
5.05725e-06
2.75972e-05
5.14486e-06
2.77289e-05
5.2027e-06
2.78451e-05
5.23152e-06
2.79454e-05
5.23223e-06
2.80297e-05
5.20584e-06
2.80981e-05
5.15347e-06
2.81512e-05
5.07631e-06
2.81893e-05
4.97559e-06
2.82134e-05
4.85262e-06
2.82242e-05
4.70876e-06
2.82226e-05
4.54547e-06
2.82098e-05
4.36435e-06
2.81868e-05
4.16717e-06
2.81545e-05
3.95599e-06
2.81139e-05
3.73324e-06
2.80662e-05
3.50193e-06
2.80121e-05
3.26582e-06
2.79526e-05
3.02975e-06
2.78885e-05
2.80002e-06
2.78205e-05
2.58498e-06
2.77492e-05
2.39565e-06
2.76756e-05
2.2469e-06
2.15924e-06
2.50113e-05
1.84056e-07
2.50458e-05
5.60555e-07
2.51037e-05
9.41407e-07
2.51842e-05
1.32281e-06
2.52861e-05
1.70114e-06
2.54076e-05
2.07279e-06
2.55464e-05
2.43421e-06
2.56999e-05
2.78205e-06
2.58651e-05
3.1132e-06
2.6039e-05
3.42486e-06
2.62184e-05
3.71459e-06
2.64002e-05
3.98031e-06
2.65814e-05
4.22036e-06
2.67594e-05
4.43341e-06
2.69315e-05
4.61856e-06
2.70956e-05
4.77519e-06
2.72498e-05
4.90304e-06
2.73926e-05
5.00208e-06
2.75227e-05
5.07256e-06
2.76393e-05
5.11489e-06
2.77419e-05
5.12969e-06
2.783e-05
5.11768e-06
2.79038e-05
5.07975e-06
2.79632e-05
5.01683e-06
2.80088e-05
4.93e-06
2.80411e-05
4.82038e-06
2.80606e-05
4.68923e-06
2.80682e-05
4.5379e-06
2.80646e-05
4.36792e-06
2.80507e-05
4.18103e-06
2.80275e-05
3.97926e-06
2.79956e-05
3.76507e-06
2.79561e-05
3.54146e-06
2.79097e-05
3.31223e-06
2.78572e-05
3.08228e-06
2.77993e-05
2.85793e-06
2.77367e-05
2.64753e-06
2.76703e-05
2.46208e-06
2.76009e-05
2.3163e-06
2.23043e-06
2.50099e-05
1.74164e-07
2.50403e-05
5.30143e-07
2.50913e-05
8.90365e-07
2.51626e-05
1.25159e-06
2.5253e-05
1.61073e-06
2.53611e-05
1.96464e-06
2.54851e-05
2.3102e-06
2.56228e-05
2.64438e-06
2.57717e-05
2.96435e-06
2.59291e-05
3.26745e-06
2.60923e-05
3.55133e-06
2.62587e-05
3.8139e-06
2.64257e-05
4.05342e-06
2.65907e-05
4.26842e-06
2.67515e-05
4.45779e-06
2.6906e-05
4.62069e-06
2.70524e-05
4.75659e-06
2.71893e-05
4.86519e-06
2.73154e-05
4.94645e-06
2.74298e-05
5.00051e-06
2.75318e-05
5.0277e-06
2.76209e-05
5.02853e-06
2.7697e-05
5.00362e-06
2.77602e-05
4.95372e-06
2.78105e-05
4.8797e-06
2.78483e-05
4.78257e-06
2.78741e-05
4.66342e-06
2.78884e-05
4.52354e-06
2.7892e-05
4.36436e-06
2.78855e-05
4.18758e-06
2.78695e-05
3.99521e-06
2.78449e-05
3.78968e-06
2.78123e-05
3.57403e-06
2.77725e-05
3.35207e-06
2.77261e-05
3.12869e-06
2.76738e-05
2.91024e-06
2.76163e-05
2.70504e-06
2.75544e-05
2.52399e-06
2.7489e-05
2.38164e-06
2.29783e-06
2.50087e-05
1.6548e-07
2.50355e-05
5.03356e-07
2.50805e-05
8.45299e-07
2.51435e-05
1.18858e-06
2.52237e-05
1.53055e-06
2.53199e-05
1.8685e-06
2.54304e-05
2.19965e-06
2.55535e-05
2.5213e-06
2.5687e-05
2.8308e-06
2.58288e-05
3.12569e-06
2.59765e-05
3.40367e-06
2.61277e-05
3.6627e-06
2.62801e-05
3.90096e-06
2.64316e-05
4.1169e-06
2.65802e-05
4.30926e-06
2.67238e-05
4.47703e-06
2.6861e-05
4.61945e-06
2.69902e-05
4.736e-06
2.71102e-05
4.82641e-06
2.72201e-05
4.89058e-06
2.73192e-05
4.92862e-06
2.74069e-05
4.9408e-06
2.7483e-05
4.92754e-06
2.75473e-05
4.8894e-06
2.75999e-05
4.82711e-06
2.7641e-05
4.74149e-06
2.76709e-05
4.63356e-06
2.76899e-05
4.50447e-06
2.76987e-05
4.3556e-06
2.76977e-05
4.18859e-06
2.76875e-05
4.00541e-06
2.76687e-05
3.80849e-06
2.76418e-05
3.60086e-06
2.76076e-05
3.38633e-06
2.75665e-05
3.16979e-06
2.75191e-05
2.95758e-06
2.74662e-05
2.75794e-06
2.74085e-05
2.58168e-06
2.73471e-05
2.44306e-06
2.36151e-06
2.50076e-05
1.57841e-07
2.50313e-05
4.79711e-07
2.50711e-05
8.05444e-07
2.51269e-05
1.13277e-06
2.51981e-05
1.45945e-06
2.52834e-05
1.78311e-06
2.53818e-05
2.10131e-06
2.54915e-05
2.41158e-06
2.56108e-05
2.71148e-06
2.57378e-05
2.99867e-06
2.58705e-05
3.27096e-06
2.60069e-05
3.52631e-06
2.6145e-05
3.76289e-06
2.62828e-05
3.97909e-06
2.64186e-05
4.17352e-06
2.65505e-05
4.34504e-06
2.66773e-05
4.49272e-06
2.67974e-05
4.61588e-06
2.69098e-05
4.71402e-06
2.70135e-05
4.78687e-06
2.71078e-05
4.83432e-06
2.71921e-05
4.85647e-06
2.72661e-05
4.85355e-06
2.73296e-05
4.82596e-06
2.73824e-05
4.77427e-06
2.74247e-05
4.69918e-06
2.74567e-05
4.60158e-06
2.74786e-05
4.48254e-06
2.74909e-05
4.34337e-06
2.74938e-05
4.18565e-06
2.74879e-05
4.01132e-06
2.74736e-05
3.82279e-06
2.74514e-05
3.62306e-06
2.74218e-05
3.41596e-06
2.73852e-05
3.20635e-06
2.73422e-05
3.00053e-06
2.72935e-05
2.80668e-06
2.72398e-05
2.63541e-06
2.71821e-05
2.50072e-06
2.42154e-06
2.50067e-05
1.51092e-07
2.50277e-05
4.58751e-07
2.50631e-05
7.70073e-07
2.51126e-05
1.08323e-06
2.51758e-05
1.39632e-06
2.52516e-05
1.7073e-06
2.53389e-05
2.01396e-06
2.54364e-05
2.31405e-06
2.55426e-05
2.60529e-06
2.56558e-05
2.88546e-06
2.57744e-05
3.15243e-06
2.58965e-05
3.4042e-06
2.60205e-05
3.63892e-06
2.61446e-05
3.85494e-06
2.62673e-05
4.05078e-06
2.63872e-05
4.2252e-06
2.65028e-05
4.37714e-06
2.66129e-05
4.50576e-06
2.67165e-05
4.61042e-06
2.68127e-05
4.69068e-06
2.69007e-05
4.74627e-06
2.69801e-05
4.77712e-06
2.70503e-05
4.7833e-06
2.71112e-05
4.76509e-06
2.71626e-05
4.72289e-06
2.72044e-05
4.65731e-06
2.72369e-05
4.56913e-06
2.72601e-05
4.45933e-06
2.72743e-05
4.32916e-06
2.72798e-05
4.18015e-06
2.72769e-05
4.0142e-06
2.7266e-05
3.83369e-06
2.72474e-05
3.64163e-06
2.72216e-05
3.44179e-06
2.71889e-05
3.23905e-06
2.71498e-05
3.03964e-06
2.71049e-05
2.85162e-06
2.70548e-05
2.68545e-06
2.70008e-05
2.55479e-06
2.47804e-06
2.5006e-05