/*--------------------------------*- C++ -*----------------------------------*\
| =========                 |                                                 |
| \\      /  F ield         | OpenFOAM: The Open Source CFD Toolbox           |
|  \\    /   O peration     | Version:  v2012                                 |
|   \\  /    A nd           | Website:  www.openfoam.com                      |
|    \\/     M anipulation  |                                                 |
\*---------------------------------------------------------------------------*/
FoamFile
{
    version     2.0;
    format      ascii;
    class       volVectorField;
    location    "0.55";
    object      U;
}
// * * * * * * * * * * * * * * * * * * * * * * * * * * * * * * * * * * * * * //

dimensions      [0 1 -1 0 0 0 0];


internalField   nonuniform List<vector> 
1600
(
(0.711047 0.139463 0)
(0.60777 0.126628 0)
(0.445315 0.0759502 0)
(0.325816 0.0431796 0)
(0.254684 0.0251442 0)
(0.209482 0.0153462 0)
(0.178286 0.00996228 0)
(0.155671 0.00690042 0)
(0.138595 0.00506046 0)
(0.125229 0.00388332 0)
(0.114464 0.00308461 0)
(0.105601 0.00251501 0)
(0.0981758 0.00209219 0)
(0.0918658 0.0017682 0)
(0.0864405 0.00151354 0)
(0.0817303 0.00130917 0)
(0.0776072 0.00114226 0)
(0.0739729 0.00100387 0)
(0.070751 0.000887574 0)
(0.0678807 0.00078863 0)
(0.0653138 0.000703447 0)
(0.0630112 0.000629262 0)
(0.0609415 0.000563923 0)
(0.0590786 0.000505746 0)
(0.0574015 0.00045342 0)
(0.0558924 0.000405923 0)
(0.0545367 0.000362468 0)
(0.0533217 0.000322452 0)
(0.0522364 0.000285441 0)
(0.0512712 0.000251176 0)
(0.0504167 0.000219604 0)
(0.0496637 0.000190939 0)
(0.049002 0.000165748 0)
(0.0484196 0.000145126 0)
(0.047901 0.000130967 0)
(0.0474267 0.000126272 0)
(0.046972 0.000136201 0)
(0.0464866 0.000170623 0)
(0.045861 0.000236176 0)
(0.0451892 0.000295167 0)
(0.990967 0.269772 0)
(0.984211 0.296565 0)
(0.868814 0.216306 0)
(0.739441 0.147755 0)
(0.633123 0.101116 0)
(0.549356 0.0707669 0)
(0.483331 0.051216 0)
(0.43105 0.0384314 0)
(0.389158 0.0298048 0)
(0.355056 0.0237682 0)
(0.326853 0.0193938 0)
(0.303194 0.0161237 0)
(0.283094 0.0136126 0)
(0.265828 0.0116398 0)
(0.250854 0.0100593 0)
(0.237761 0.00877143 0)
(0.22623 0.00770634 0)
(0.216015 0.00681371 0)
(0.206917 0.00605651 0)
(0.198782 0.00540693 0)
(0.19148 0.00484372 0)
(0.184911 0.00435039 0)
(0.178987 0.00391399 0)
(0.173641 0.00352431 0)
(0.168813 0.00317327 0)
(0.164456 0.0028545 0)
(0.160527 0.00256299 0)
(0.156993 0.00229494 0)
(0.153822 0.00204762 0)
(0.150986 0.00181934 0)
(0.14846 0.0016096 0)
(0.146217 0.00141925 0)
(0.14423 0.00125075 0)
(0.142467 0.00110869 0)
(0.140891 0.00100024 0)
(0.139461 0.000935462 0)
(0.138129 0.000928438 0)
(0.136816 0.000999138 0)
(0.135365 0.00114991 0)
(0.134013 0.00127864 0)
(1.02867 0.225543 0)
(1.06696 0.33337 0)
(1.03271 0.306484 0)
(0.957544 0.250273 0)
(0.872332 0.196188 0)
(0.79075 0.15225 0)
(0.717807 0.118946 0)
(0.654668 0.0942842 0)
(0.600703 0.076007 0)
(0.55466 0.0623016 0)
(0.515243 0.0518565 0)
(0.481305 0.0437552 0)
(0.451889 0.0373622 0)
(0.42622 0.0322347 0)
(0.403677 0.0280603 0)
(0.383762 0.024615 0)
(0.366074 0.0217356 0)
(0.35029 0.0193012 0)
(0.336148 0.0172206 0)
(0.323434 0.0154243 0)
(0.311971 0.0138583 0)
(0.301613 0.0124803 0)
(0.29224 0.0112568 0)
(0.28375 0.0101611 0)
(0.276058 0.009172 0)
(0.269093 0.0082724 0)
(0.262792 0.00744896 0)
(0.257104 0.00669138 0)
(0.251982 0.00599223 0)
(0.247383 0.00534685 0)
(0.243268 0.00475349 0)
(0.239599 0.00421363 0)
(0.236334 0.00373233 0)
(0.233431 0.00331879 0)
(0.230841 0.00298649 0)
(0.22851 0.00275267 0)
(0.226388 0.00263692 0)
(0.224387 0.00265629 0)
(0.222324 0.00279167 0)
(0.220523 0.00290982 0)
(1.02442 0.165361 0)
(1.0707 0.308643 0)
(1.08303 0.335433 0)
(1.05664 0.31067 0)
(1.00624 0.268603 0)
(0.945609 0.225224 0)
(0.88324 0.186881 0)
(0.82365 0.155111 0)
(0.768862 0.129485 0)
(0.719478 0.108989 0)
(0.675386 0.0925786 0)
(0.636164 0.0793567 0)
(0.601284 0.0686096 0)
(0.570217 0.0597867 0)
(0.542476 0.0524689 0)
(0.517633 0.0463372 0)
(0.495317 0.0411485 0)
(0.475213 0.0367156 0)
(0.457054 0.0328935 0)
(0.440613 0.0295687 0)
(0.425699 0.0266514 0)
(0.41215 0.0240703 0)
(0.39983 0.021768 0)
(0.388622 0.0196981 0)
(0.378425 0.0178235 0)
(0.369156 0.0161141 0)
(0.36074 0.014546 0)
(0.353114 0.0131007 0)
(0.34622 0.0117647 0)
(0.340008 0.0105293 0)
(0.334428 0.00939053 0)
(0.329435 0.00834997 0)
(0.324981 0.00741461 0)
(0.321015 0.00659742 0)
(0.317485 0.00591691 0)
(0.314333 0.00539532 0)
(0.311509 0.00505483 0)
(0.30892 0.00490805 0)
(0.306353 0.00492374 0)
(0.304196 0.00496844 0)
(1.01625 0.123018 0)
(1.05677 0.268105 0)
(1.08815 0.326762 0)
(1.09275 0.331871 0)
(1.07275 0.309673 0)
(1.03667 0.276614 0)
(0.991934 0.24169 0)
(0.943831 0.209124 0)
(0.895726 0.180474 0)
(0.849552 0.155985 0)
(0.806278 0.13533 0)
(0.766286 0.117989 0)
(0.729622 0.103422 0)
(0.696153 0.0911415 0)
(0.665659 0.0807323 0)
(0.637891 0.0718531 0)
(0.612598 0.0642266 0)
(0.589542 0.0576287 0)
(0.568506 0.0518791 0)
(0.549295 0.0468316 0)
(0.531736 0.042368 0)
(0.515679 0.0383918 0)
(0.500991 0.0348244 0)
(0.487556 0.0316012 0)
(0.475275 0.0286694 0)
(0.464059 0.0259861 0)
(0.453833 0.0235168 0)
(0.444527 0.0212345 0)
(0.436081 0.019119 0)
(0.428441 0.017157 0)
(0.421554 0.0153422 0)
(0.41537 0.0136752 0)
(0.40984 0.0121639 0)
(0.404913 0.0108239 0)
(0.400533 0.00967733 0)
(0.396645 0.0087503 0)
(0.393198 0.00806801 0)
(0.390092 0.00764386 0)
(0.387085 0.00744916 0)
(0.384623 0.00737071 0)
(1.01025 0.0944399 0)
(1.04225 0.227932 0)
(1.07808 0.30129 0)
(1.09885 0.328253 0)
(1.10006 0.32555 0)
(1.08495 0.306461 0)
(1.05827 0.27995 0)
(1.02439 0.251422 0)
(0.986756 0.223794 0)
(0.947843 0.198435 0)
(0.909268 0.175829 0)
(0.872017 0.155993 0)
(0.836647 0.138725 0)
(0.803424 0.123735 0)
(0.772436 0.110718 0)
(0.743662 0.0993878 0)
(0.717019 0.0894892 0)
(0.692392 0.0808013 0)
(0.669653 0.0731359 0)
(0.648672 0.0663347 0)
(0.629323 0.0602645 0)
(0.611488 0.0548138 0)
(0.595059 0.0498891 0)
(0.579937 0.0454126 0)
(0.566034 0.0413193 0)
(0.55327 0.0375556 0)
(0.541575 0.0340778 0)
(0.530884 0.0308512 0)
(0.52114 0.0278499 0)
(0.512288 0.0250561 0)
(0.504278 0.0224606 0)
(0.497062 0.0200629 0)
(0.490592 0.0178715 0)
(0.484819 0.0159036 0)
(0.479691 0.0141845 0)
(0.475153 0.0127445 0)
(0.471157 0.0116146 0)
(0.467593 0.0108157 0)
(0.464194 0.0103343 0)
(0.46146 0.010091 0)
(1.00654 0.0746337 0)
(1.03107 0.192926 0)
(1.06495 0.270493 0)
(1.09232 0.311103 0)
(1.10628 0.324043 0)
(1.10649 0.318643 0)
(1.09509 0.302416 0)
(1.0749 0.280721 0)
(1.04872 0.257044 0)
(1.01891 0.233473 0)
(0.987273 0.211143 0)
(0.955099 0.190592 0)
(0.92328 0.171996 0)
(0.892397 0.155334 0)
(0.862805 0.140477 0)
(0.834704 0.127256 0)
(0.808188 0.115484 0)
(0.783282 0.104984 0)
(0.759966 0.0955903 0)
(0.738194 0.0871544 0)
(0.717907 0.0795458 0)
(0.699035 0.0726507 0)
(0.681509 0.0663708 0)
(0.66526 0.0606218 0)
(0.650222 0.0553322 0)
(0.636335 0.0504415 0)
(0.623539 0.0459001 0)
(0.611782 0.0416676 0)
(0.601015 0.0377136 0)
(0.59119 0.0340169 0)
(0.582264 0.0305659 0)
(0.574193 0.0273592 0)
(0.566935 0.0244055 0)
(0.560445 0.021724 0)
(0.554677 0.0193435 0)
(0.549579 0.0172999 0)
(0.545106 0.015633 0)
(0.54114 0.0143781 0)
(0.53739 0.0135464 0)
(0.534415 0.0131027 0)
(1.00434 0.0605389 0)
(1.02315 0.16389 0)
(1.05293 0.239883 0)
(1.08157 0.287699 0)
(1.10209 0.31173 0)
(1.11233 0.317862 0)
(1.11245 0.311711 0)
(1.10384 0.297894 0)
(1.08835 0.27984 0)
(1.06786 0.259918 0)
(1.04402 0.23966 0)
(1.01815 0.219992 0)
(0.991299 0.201427 0)
(0.964213 0.184207 0)
(0.937439 0.168407 0)
(0.911351 0.154001 0)
(0.886198 0.140908 0)
(0.862135 0.12902 0)
(0.839252 0.11822 0)
(0.817593 0.108392 0)
(0.797169 0.0994224 0)
(0.777972 0.0912102 0)
(0.759978 0.0836626 0)
(0.743158 0.0766977 0)
(0.727476 0.0702434 0)
(0.712894 0.0642381 0)
(0.699377 0.0586296 0)
(0.686886 0.0533752 0)
(0.675385 0.048442 0)
(0.664841 0.0438071 0)
(0.655217 0.0394575 0)
(0.646481 0.0353915 0)
(0.638598 0.0316188 0)
(0.63153 0.0281611 0)
(0.625237 0.0250514 0)
(0.619674 0.0223335 0)
(0.614797 0.0200593 0)
(0.610483 0.0182835 0)
(0.606427 0.0170499 0)
(0.603241 0.0163754 0)
(1.00303 0.0501861 0)
(1.01763 0.140191 0)
(1.043 0.211784 0)
(1.0703 0.262385 0)
(1.09343 0.293489 0)
(1.10954 0.308423 0)
(1.11764 0.311029 0)
(1.11798 0.304914 0)
(1.11154 0.293081 0)
(1.09958 0.277843 0)
(1.08341 0.260874 0)
(1.06421 0.243324 0)
(1.04298 0.225944 0)
(1.02054 0.209197 0)
(0.997517 0.193339 0)
(0.974406 0.178495 0)
(0.951562 0.164699 0)
(0.929246 0.151928 0)
(0.907642 0.140131 0)
(0.886876 0.129237 0)
(0.86703 0.119166 0)
(0.848155 0.109841 0)
(0.830279 0.101184 0)
(0.813413 0.0931239 0)
(0.797556 0.0855952 0)
(0.782701 0.0785401 0)
(0.768835 0.0719085 0)
(0.755942 0.0656589 0)
(0.744001 0.0597587 0)
(0.732995 0.054185 0)
(0.7229 0.0489253 0)
(0.713695 0.0439788 0)
(0.705355 0.039357 0)
(0.697852 0.0350848 0)
(0.691154 0.0312014 0)
(0.685221 0.0277599 0)
(0.680016 0.0248276 0)
(0.675414 0.0224831 0)
(0.671095 0.0208079 0)
(0.667731 0.0198782 0)
(1.0022 0.0423315 0)
(1.01373 0.120861 0)
(1.0351 0.186927 0)
(1.05996 0.237528 0)
(1.08336 0.272593 0)
(1.10242 0.293729 0)
(1.11559 0.303348 0)
(1.12239 0.30406 0)
(1.12308 0.298288 0)
(1.11836 0.288079 0)
(1.10913 0.275056 0)
(1.09631 0.260438 0)
(1.08079 0.245107 0)
(1.06332 0.229674 0)
(1.04455 0.21454 0)
(1.02501 0.199956 0)
(1.00512 0.186067 0)
(0.985212 0.172939 0)
(0.965543 0.16059 0)
(0.946301 0.149003 0)
(0.927631 0.138142 0)
(0.909638 0.127961 0)
(0.892396 0.118405 0)
(0.875958 0.10942 0)
(0.86036 0.100954 0)
(0.845624 0.0929587 0)
(0.831764 0.0853893 0)
(0.818786 0.0782093 0)
(0.806691 0.0713891 0)
(0.795476 0.0649085 0)
(0.785133 0.0587573 0)
(0.775655 0.0529369 0)
(0.767029 0.047462 0)
(0.759236 0.0423622 0)
(0.752253 0.0376837 0)
(0.746051 0.0334915 0)
(0.740596 0.0298702 0)
(0.735763 0.0269257 0)
(0.73123 0.0247815 0)
(0.72772 0.0235789 0)
(1.00167 0.0362044 0)
(1.01091 0.105003 0)
(1.02888 0.165313 0)
(1.051 0.214281 0)
(1.0734 0.251078 0)
(1.09348 0.276234 0)
(1.10954 0.291112 0)
(1.12067 0.297474 0)
(1.12665 0.297148 0)
(1.12772 0.29182 0)
(1.12439 0.282939 0)
(1.11731 0.271678 0)
(1.10716 0.258951 0)
(1.09459 0.245444 0)
(1.08019 0.231653 0)
(1.0645 0.217925 0)
(1.04793 0.204493 0)
(1.03086 0.191504 0)
(1.01358 0.179042 0)
(0.996337 0.167148 0)
(0.979309 0.15583 0)
(0.96265 0.145076 0)
(0.946474 0.134864 0)
(0.930872 0.125159 0)
(0.915913 0.115929 0)
(0.901648 0.107135 0)
(0.888117 0.0987465 0)
(0.87535 0.0907324 0)
(0.863367 0.0830697 0)
(0.852183 0.0757429 0)
(0.841808 0.0687459 0)
(0.832246 0.0620842 0)
(0.823498 0.055777 0)
(0.815558 0.04986 0)
(0.808411 0.0443882 0)
(0.802037 0.0394391 0)
(0.79641 0.0351174 0)
(0.791409 0.0315584 0)
(0.786708 0.0289305 0)
(0.783089 0.027444 0)
(1.0013 0.0313168 0)
(1.00882 0.0918892 0)
(1.02396 0.146656 0)
(1.04341 0.193112 0)
(1.0642 0.230127 0)
(1.08411 0.257605 0)
(1.10151 0.276189 0)
(1.11531 0.286975 0)
(1.125 0.291262 0)
(1.13046 0.290361 0)
(1.1319 0.285485 0)
(1.1297 0.277688 0)
(1.12434 0.267841 0)
(1.11632 0.256644 0)
(1.10616 0.244636 0)
(1.09431 0.232223 0)
(1.08119 0.219704 0)
(1.06717 0.207287 0)
(1.05256 0.195115 0)
(1.03762 0.183278 0)
(1.02256 0.17183 0)
(1.00757 0.160796 0)
(0.992804 0.150182 0)
(0.978367 0.139981 0)
(0.964363 0.130179 0)
(0.95087 0.120754 0)
(0.93795 0.111688 0)
(0.925654 0.10296 0)
(0.914024 0.0945566 0)
(0.903091 0.0864681 0)
(0.892882 0.0786945 0)
(0.883414 0.071247 0)
(0.874702 0.0641508 0)
(0.86675 0.0574489 0)
(0.859556 0.0512061 0)
(0.853106 0.0455144 0)
(0.847385 0.0404993 0)
(0.842275 0.0363273 0)
(0.837457 0.0332134 0)
(0.833764 0.0314394 0)
(1.00103 0.0273475 0)
(1.00724 0.0809533 0)
(1.02005 0.130583 0)
(1.03706 0.174121 0)
(1.05599 0.210379 0)
(1.07505 0.238923 0)
(1.09274 0.259929 0)
(1.10798 0.274006 0)
(1.12007 0.282019 0)
(1.1287 0.284933 0)
(1.13382 0.283714 0)
(1.13559 0.279254 0)
(1.13432 0.272339 0)
(1.13034 0.263632 0)
(1.12406 0.253674 0)
(1.11587 0.242896 0)
(1.10614 0.231634 0)
(1.0952 0.220139 0)
(1.08336 0.208598 0)
(1.07088 0.197145 0)
(1.058 0.185871 0)
(1.04492 0.174834 0)
(1.03179 0.164071 0)
(1.01877 0.1536 0)
(1.00597 0.143427 0)
(0.993487 0.133549 0)
(0.981411 0.123962 0)
(0.969809 0.114658 0)
(0.95874 0.105633 0)
(0.948252 0.0968854 0)
(0.938385 0.0884233 0)
(0.929173 0.0802645 0)
(0.92064 0.0724417 0)
(0.912803 0.0650063 0)
(0.905668 0.058034 0)
(0.899235 0.0516319 0)
(0.893495 0.0459474 0)
(0.888335 0.0411789 0)
(0.883448 0.0375887 0)
(0.879717 0.0355309 0)
(1.00084 0.0240771 0)
(1.00601 0.0717595 0)
(1.01691 0.116728 0)
(1.03175 0.157229 0)
(1.04881 0.192132 0)
(1.06664 0.220849 0)
(1.08396 0.24327 0)
(1.09973 0.259664 0)
(1.11323 0.270557 0)
(1.12399 0.276625 0)
(1.13182 0.278598 0)
(1.1367 0.2772 0)
(1.13877 0.273102 0)
(1.13824 0.266901 0)
(1.1354 0.259109 0)
(1.13055 0.250153 0)
(1.12398 0.240381 0)
(1.11602 0.230069 0)
(1.10692 0.219431 0)
(1.09695 0.208633 0)
(1.08633 0.197795 0)
(1.07527 0.187007 0)
(1.06394 0.17633 0)
(1.05249 0.165806 0)
(1.04107 0.155461 0)
(1.02979 0.145311 0)
(1.01874 0.135366 0)
(1.00801 0.125632 0)
(0.997668 0.116114 0)
(0.987787 0.106823 0)
(0.978415 0.0977741 0)
(0.969597 0.0889934 0)
(0.961369 0.0805217 0)
(0.95376 0.0724199 0)
(0.946785 0.0647753 0)
(0.940452 0.0577109 0)
(0.934762 0.0513963 0)
(0.929609 0.0460614 0)
(0.924698 0.0420156 0)
(0.920964 0.0396844 0)
(1.00069 0.0213505 0)
(1.00504 0.0639729 0)
(1.01436 0.104761 0)
(1.02731 0.142271 0)
(1.04258 0.175485 0)
(1.05902 0.203766 0)
(1.07555 0.226839 0)
(1.09125 0.244748 0)
(1.1054 0.257772 0)
(1.11748 0.266349 0)
(1.12719 0.271009 0)
(1.13439 0.27231 0)
(1.1391 0.270804 0)
(1.14141 0.267006 0)
(1.14149 0.261376 0)
(1.13957 0.254315 0)
(1.13588 0.246165 0)
(1.13067 0.237206 0)
(1.12419 0.227669 0)
(1.11665 0.217736 0)
(1.10828 0.207552 0)
(1.09927 0.197227 0)
(1.0898 0.186844 0)
(1.08003 0.176464 0)
(1.0701 0.166134 0)
(1.06013 0.155886 0)
(1.05023 0.145744 0)
(1.0405 0.135726 0)
(1.03103 0.125852 0)
(1.02188 0.116139 0)
(1.01313 0.106614 0)
(1.00482 0.0973104 0)
(0.997006 0.088279 0)
(0.989721 0.0795903 0)
(0.982992 0.0713437 0)
(0.976834 0.0636782 0)
(0.971257 0.0567852 0)
(0.966164 0.050926 0)
(0.961273 0.0464551 0)
(0.957569 0.0438672 0)
(1.00058 0.0190549 0)
(1.00427 0.0573343 0)
(1.01228 0.0943953 0)
(1.02359 0.129056 0)
(1.0372 0.160422 0)
(1.05221 0.187866 0)
(1.06773 0.211034 0)
(1.08295 0.229825 0)
(1.0972 0.244341 0)
(1.10996 0.254843 0)
(1.12087 0.261688 0)
(1.12972 0.265294 0)
(1.13642 0.266092 0)
(1.14098 0.264511 0)
(1.14348 0.260948 0)
(1.14406 0.255765 0)
(1.14288 0.24928 0)
(1.14016 0.241767 0)
(1.13607 0.233457 0)
(1.13082 0.224541 0)
(1.1246 0.215176 0)
(1.1176 0.205487 0)
(1.10998 0.195572 0)
(1.1019 0.185511 0)
(1.09351 0.175364 0)
(1.08492 0.165178 0)
(1.07625 0.15499 0)
(1.06761 0.144833 0)
(1.0591 0.134734 0)
(1.05078 0.124724 0)
(1.04274 0.114836 0)
(1.03503 0.105116 0)
(1.02772 0.0956208 0)
(1.02084 0.0864332 0)
(1.01442 0.0776643 0)
(1.00851 0.0694689 0)
(1.0031 0.0620597 0)
(0.998109 0.0557277 0)
(0.993279 0.0508707 0)
(0.989637 0.0480482 0)
(1.00049 0.0171062 0)
(1.00364 0.051641 0)
(1.01055 0.0853916 0)
(1.02045 0.11739 0)
(1.03255 0.146863 0)
(1.04616 0.173225 0)
(1.06056 0.196093 0)
(1.07505 0.215278 0)
(1.08903 0.230766 0)
(1.10199 0.242682 0)
(1.11357 0.25125 0)
(1.1235 0.256764 0)
(1.13163 0.259552 0)
(1.1379 0.259954 0)
(1.14232 0.258303 0)
(1.14496 0.254912 0)
(1.14592 0.250068 0)
(1.14536 0.244025 0)
(1.14341 0.237007 0)
(1.14025 0.229202 0)
(1.13603 0.220771 0)
(1.13093 0.211847 0)
(1.1251 0.202541 0)
(1.11868 0.192942 0)
(1.1118 0.183122 0)
(1.10461 0.17314 0)
(1.09721 0.163046 0)
(1.0897 0.152882 0)
(1.0822 0.142687 0)
(1.07477 0.132499 0)
(1.0675 0.122363 0)
(1.06046 0.112332 0)
(1.05371 0.102474 0)
(1.0473 0.0928805 0)
(1.04126 0.0836752 0)
(1.03563 0.0750282 0)
(1.03044 0.0671725 0)
(1.0256 0.060427 0)
(1.02086 0.0552293 0)
(1.01731 0.0521986 0)
(1.00041 0.0154403 0)
(1.00312 0.0467332 0)
(1.00911 0.0775484 0)
(1.01778 0.107091 0)
(1.02854 0.1347 0)
(1.04083 0.159845 0)
(1.05407 0.182142 0)
(1.06768 0.201359 0)
(1.08113 0.217403 0)
(1.09395 0.230304 0)
(1.10578 0.240184 0)
(1.11633 0.247235 0)
(1.12542 0.251696 0)
(1.13293 0.253826 0)
(1.13881 0.253895 0)
(1.14309 0.252165 0)
(1.14582 0.248885 0)
(1.14708 0.244284 0)
(1.14699 0.238568 0)
(1.14567 0.231917 0)
(1.14327 0.224491 0)
(1.13992 0.216423 0)
(1.13575 0.207829 0)
(1.13091 0.198804 0)
(1.12551 0.18943 0)
(1.11968 0.179774 0)
(1.11353 0.169895 0)
(1.10716 0.159845 0)
(1.10068 0.14967 0)
(1.09418 0.139419 0)
(1.08772 0.129144 0)
(1.08138 0.118907 0)
(1.07524 0.108786 0)
(1.06934 0.0988811 0)
(1.06372 0.0893284 0)
(1.05842 0.0803121 0)
(1.05348 0.0720844 0)
(1.04882 0.0649896 0)
(1.04421 0.0595015 0)
(1.04077 0.0562923 0)
(1.00035 0.0140079 0)
(1.00269 0.0424835 0)
(1.00791 0.0706976 0)
(1.01552 0.0979952 0)
(1.02506 0.123815 0)
(1.03612 0.147684 0)
(1.04823 0.169236 0)
(1.06089 0.18822 0)
(1.07364 0.204499 0)
(1.08607 0.218034 0)
(1.09784 0.228872 0)
(1.10865 0.237127 0)
(1.1183 0.242959 0)
(1.12665 0.246561 0)
(1.1336 0.24814 0)
(1.13914 0.247912 0)
(1.14326 0.246084 0)
(1.14602 0.242856 0)
(1.1475 0.238412 0)
(1.14778 0.232919 0)
(1.14697 0.226527 0)
(1.14518 0.219368 0)
(1.14253 0.211555 0)
(1.13914 0.203187 0)
(1.13513 0.194351 0)
(1.1306 0.18512 0)
(1.12565 0.175558 0)
(1.12041 0.165725 0)
(1.11494 0.155676 0)
(1.10935 0.145465 0)
(1.10371 0.135154 0)
(1.0981 0.124812 0)
(1.09258 0.114524 0)
(1.08722 0.104401 0)
(1.08204 0.0945895 0)
(1.07711 0.0852877 0)
(1.07245 0.0767646 0)
(1.06799 0.0693877 0)
(1.06353 0.0636622 0)
(1.06022 0.0603063 0)
(1.0003 0.01277 0)
(1.00233 0.0387894 0)
(1.00688 0.0646992 0)
(1.01357 0.0899576 0)
(1.02205 0.114088 0)
(1.03198 0.136675 0)
(1.04299 0.157379 0)
(1.05467 0.175947 0)
(1.06663 0.192216 0)
(1.07852 0.206105 0)
(1.08999 0.217606 0)
(1.10079 0.226772 0)
(1.11069 0.233702 0)
(1.11953 0.238529 0)
(1.1272 0.241409 0)
(1.13365 0.242509 0)
(1.13884 0.241999 0)
(1.1428 0.240048 0)
(1.14555 0.236815 0)
(1.14716 0.232449 0)
(1.14771 0.227089 0)
(1.14729 0.220858 0)
(1.146 0.213865 0)
(1.14392 0.20621 0)
(1.14117 0.197978 0)
(1.13784 0.189248 0)
(1.13404 0.180086 0)
(1.12984 0.170558 0)
(1.12536 0.160725 0)
(1.12066 0.150647 0)
(1.11583 0.140392 0)
(1.11094 0.130036 0)
(1.10605 0.119672 0)
(1.10123 0.109421 0)
(1.09651 0.0994375 0)
(1.09195 0.0899327 0)
(1.08759 0.0811909 0)
(1.08335 0.0735993 0)
(1.07906 0.0676905 0)
(1.07591 0.0642206 0)
(1.00026 0.0116958 0)
(1.00203 0.035568 0)
(1.00601 0.0594362 0)
(1.0119 0.0828502 0)
(1.01942 0.105406 0)
(1.02832 0.12674 0)
(1.0383 0.146543 0)
(1.04902 0.164573 0)
(1.06014 0.180654 0)
(1.07136 0.19468 0)
(1.08238 0.206603 0)
(1.09295 0.216432 0)
(1.10285 0.224217 0)
(1.11192 0.230044 0)
(1.12002 0.234021 0)
(1.12708 0.236274 0)
(1.13305 0.236939 0)
(1.13791 0.236151 0)
(1.14166 0.234046 0)
(1.14436 0.230754 0)
(1.14605 0.226396 0)
(1.14679 0.221086 0)
(1.14666 0.214927 0)
(1.14574 0.208013 0)
(1.14411 0.20043 0)
(1.14188 0.192254 0)
(1.13911 0.183556 0)
(1.1359 0.174403 0)
(1.13233 0.164861 0)
(1.12848 0.154995 0)
(1.12442 0.144877 0)
(1.12023 0.13459 0)
(1.11596 0.124235 0)
(1.11167 0.113938 0)
(1.10742 0.103864 0)
(1.10324 0.0942353 0)
(1.09918 0.0853489 0)
(1.09517 0.077609 0)
(1.09107 0.0715702 0)
(1.08809 0.0680188 0)
(1.00023 0.0107604 0)
(1.00177 0.0327514 0)
(1.00526 0.0548104 0)
(1.01045 0.0765618 0)
(1.01713 0.0976624 0)
(1.02509 0.117796 0)
(1.0341 0.136685 0)
(1.04389 0.154101 0)
(1.05417 0.169868 0)
(1.06466 0.183865 0)
(1.07512 0.196018 0)
(1.08531 0.206304 0)
(1.09502 0.214736 0)
(1.10409 0.221359 0)
(1.11238 0.226246 0)
(1.1198 0.229485 0)
(1.12628 0.231178 0)
(1.13178 0.231433 0)
(1.1363 0.23036 0)
(1.13984 0.228068 0)
(1.14243 0.224665 0)
(1.14413 0.220249 0)
(1.14498 0.214915 0)
(1.14505 0.208751 0)
(1.14441 0.201838 0)
(1.14314 0.194252 0)
(1.1413 0.186062 0)
(1.13898 0.177338 0)
(1.13625 0.168146 0)
(1.13319 0.158556 0)
(1.12985 0.148645 0)
(1.12631 0.1385 0)
(1.12264 0.128227 0)
(1.11887 0.11796 0)
(1.11506 0.107872 0)
(1.11126 0.0981931 0)
(1.10751 0.0892321 0)
(1.10374 0.0814068 0)
(1.09984 0.0752891 0)
(1.09702 0.0716876 0)
(1.0002 0.00994374 0)
(1.00155 0.0302834 0)
(1.00461 0.0507392 0)
(1.00919 0.0709957 0)
(1.01512 0.0907612 0)
(1.02224 0.109761 0)
(1.03036 0.127748 0)
(1.03925 0.144512 0)
(1.04869 0.15988 0)
(1.05843 0.173725 0)
(1.06825 0.18596 0)
(1.07795 0.196535 0)
(1.08733 0.205438 0)
(1.09623 0.212682 0)
(1.10451 0.218309 0)
(1.11208 0.222377 0)
(1.11885 0.224957 0)
(1.12478 0.226132 0)
(1.12982 0.225989 0)
(1.13399 0.224617 0)
(1.13729 0.222105 0)
(1.13974 0.21854 0)
(1.14139 0.214006 0)
(1.14229 0.208582 0)
(1.14248 0.202345 0)
(1.14203 0.195364 0)
(1.14101 0.187711 0)
(1.13948 0.179452 0)
(1.1375 0.170656 0)
(1.13514 0.161395 0)
(1.13247 0.151748 0)
(1.12954 0.141806 0)
(1.12642 0.13168 0)
(1.12314 0.121509 0)
(1.11976 0.111474 0)
(1.11633 0.101812 0)
(1.11287 0.0928404 0)
(1.10935 0.0849882 0)
(1.10565 0.0788394 0)
(1.10301 0.0752169 0)
(1.00017 0.00922938 0)
(1.00135 0.0281176 0)
(1.00405 0.0471525 0)
(1.00809 0.0660679 0)
(1.01335 0.0846152 0)
(1.01971 0.102556 0)
(1.027 0.119672 0)
(1.03506 0.13577 0)
(1.04368 0.150688 0)
(1.05266 0.164296 0)
(1.06182 0.176498 0)
(1.07095 0.187231 0)
(1.07989 0.196459 0)
(1.08849 0.204175 0)
(1.09661 0.210393 0)
(1.10415 0.215147 0)
(1.11103 0.218483 0)
(1.11718 0.22046 0)
(1.12256 0.221143 0)
(1.12716 0.220604 0)
(1.13097 0.218913 0)
(1.134 0.216146 0)
(1.13627 0.212373 0)
(1.13783 0.207666 0)
(1.1387 0.202093 0)
(1.13895 0.195722 0)
(1.13861 0.188618 0)
(1.13776 0.180847 0)
(1.13644 0.172478 0)
(1.13471 0.163584 0)
(1.13263 0.154244 0)
(1.13026 0.144555 0)
(1.12764 0.13463 0)
(1.12481 0.124614 0)
(1.12183 0.11469 0)
(1.11874 0.105104 0)
(1.11558 0.0961797 0)
(1.11229 0.0883532 0)
(1.10879 0.0822164 0)
(1.10634 0.0785997 0)
(1.00015 0.0086037 0)
(1.00119 0.0262149 0)
(1.00356 0.0439906 0)
(1.00713 0.0617051 0)
(1.01179 0.0791461 0)
(1.01746 0.0961073 0)
(1.024 0.112395 0)
(1.03128 0.127835 0)
(1.03911 0.142275 0)
(1.04735 0.155588 0)
(1.05581 0.167675 0)
(1.06434 0.178462 0)
(1.07277 0.1879 0)
(1.08097 0.195962 0)
(1.08881 0.202645 0)
(1.09618 0.207959 0)
(1.10301 0.21193 0)
(1.10923 0.214598 0)
(1.11477 0.216007 0)
(1.11963 0.216212 0)
(1.12378 0.215269 0)
(1.12721 0.213238 0)
(1.12995 0.210179 0)
(1.13201 0.206154 0)
(1.13342 0.201225 0)
(1.13423 0.195452 0)
(1.13446 0.188898 0)
(1.13418 0.181626 0)
(1.13342 0.173702 0)
(1.13223 0.165201 0)
(1.13067 0.156203 0)
(1.12879 0.146805 0)
(1.12661 0.137124 0)
(1.1242 0.127309 0)
(1.12159 0.117547 0)
(1.11882 0.108087 0)
(1.11593 0.0992604 0)
(1.11287 0.0915055 0)
(1.10957 0.0854188 0)
(1.1073 0.0818311 0)
(1.00013 0.00805528 0)
(1.00104 0.0245422 0)
(1.00313 0.0412022 0)
(1.00628 0.0578432 0)
(1.01042 0.0742835 0)
(1.01546 0.0903443 0)
(1.02132 0.105855 0)
(1.02786 0.120658 0)
(1.03496 0.134612 0)
(1.04247 0.147597 0)
(1.05025 0.159511 0)
(1.05814 0.170275 0)
(1.06601 0.17983 0)
(1.07374 0.188138 0)
(1.08121 0.195177 0)
(1.08831 0.200942 0)
(1.09497 0.205443 0)
(1.1011 0.208699 0)
(1.10667 0.21074 0)
(1.11164 0.211604 0)
(1.11597 0.211332 0)
(1.11966 0.209973 0)
(1.12271 0.207576 0)
(1.12514 0.204192 0)
(1.12695 0.199875 0)
(1.12819 0.194681 0)
(1.12888 0.188667 0)
(1.12905 0.181892 0)
(1.12876 0.174421 0)
(1.12803 0.166328 0)
(1.12691 0.157693 0)
(1.12544 0.148614 0)
(1.12367 0.139212 0)
(1.12162 0.129634 0)
(1.11934 0.120074 0)
(1.11687 0.110784 0)
(1.11423 0.102096 0)
(1.11139 0.0944521 0)
(1.10828 0.0884476 0)
(1.10619 0.0849089 0)
(1.00012 0.00757441 0)
(1.00091 0.0230711 0)
(1.00275 0.0387428 0)
(1.00554 0.0544258 0)
(1.0092 0.0699641 0)
(1.01369 0.085203 0)
(1.01892 0.0999918 0)
(1.02479 0.114189 0)
(1.0312 0.127665 0)
(1.03801 0.140305 0)
(1.04511 0.152009 0)
(1.05236 0.162695 0)
(1.05965 0.172298 0)
(1.06686 0.18077 0)
(1.07389 0.188077 0)
(1.08063 0.194201 0)
(1.08701 0.199137 0)
(1.09297 0.20289 0)
(1.09844 0.205476 0)
(1.10338 0.206918 0)
(1.10777 0.207245 0)
(1.11158 0.206493 0)
(1.11482 0.204701 0)
(1.11748 0.201912 0)
(1.11958 0.198171 0)
(1.12113 0.193528 0)
(1.12216 0.188034 0)
(1.12269 0.181746 0)
(1.12276 0.174727 0)
(1.12241 0.167047 0)
(1.12165 0.158787 0)
(1.12054 0.150046 0)
(1.11911 0.140944 0)
(1.11738 0.131633 0)
(1.11539 0.122306 0)
(1.11318 0.113219 0)
(1.11078 0.104703 0)
(1.10814 0.097202 0)
(1.10522 0.0913062 0)
(1.10331 0.0878327 0)
(1.0001 0.00715269 0)
(1.0008 0.0217768 0)
(1.00242 0.0365734 0)
(1.00488 0.0514024 0)
(1.00813 0.0661306 0)
(1.01211 0.0806235 0)
(1.01678 0.0947484 0)
(1.02203 0.108378 0)
(1.02779 0.121394 0)
(1.03394 0.133687 0)
(1.04038 0.14516 0)
(1.047 0.155732 0)
(1.0537 0.165331 0)
(1.06036 0.173904 0)
(1.06689 0.181408 0)
(1.07322 0.187815 0)
(1.07925 0.193106 0)
(1.08494 0.197276 0)
(1.09021 0.200328 0)
(1.09502 0.202273 0)
(1.09936 0.203129 0)
(1.10318 0.202921 0)
(1.10649 0.201678 0)
(1.10927 0.199434 0)
(1.11154 0.196228 0)
(1.1133 0.192102 0)
(1.11456 0.187104 0)
(1.11536 0.181286 0)
(1.11571 0.174707 0)
(1.11565 0.167436 0)
(1.11519 0.159554 0)
(1.11437 0.15116 0)
(1.11322 0.142373 0)
(1.11177 0.133347 0)
(1.11003 0.124277 0)
(1.10806 0.115417 0)
(1.10586 0.1071 0)
(1.10342 0.0997657 0)
(1.10068 0.0939993 0)
(1.09894 0.0906037 0)
(1.00009 0.00678267 0)
(1.0007 0.0206376 0)
(1.00213 0.0346589 0)
(1.0043 0.048728 0)
(1.00718 0.0627307 0)
(1.01072 0.0765505 0)
(1.01487 0.0900701 0)
(1.01956 0.103175 0)
(1.02472 0.115756 0)
(1.03025 0.127712 0)
(1.03606 0.138948 0)
(1.04206 0.149382 0)
(1.04815 0.158943 0)
(1.05425 0.16757 0)
(1.06028 0.175216 0)
(1.06614 0.181841 0)
(1.07177 0.187421 0)
(1.07711 0.191939 0)
(1.0821 0.195388 0)
(1.08671 0.197767 0)
(1.0909 0.199087 0)
(1.09464 0.199361 0)
(1.09792 0.198611 0)
(1.10072 0.196863 0)
(1.10306 0.194148 0)
(1.10493 0.190503 0)
(1.10635 0.18597 0)
(1.10732 0.180597 0)
(1.10787 0.174442 0)
(1.10802 0.16757 0)
(1.10779 0.160062 0)
(1.10721 0.152015 0)
(1.10629 0.143549 0)
(1.10506 0.134819 0)
(1.10355 0.126019 0)
(1.10177 0.117403 0)
(1.09977 0.109304 0)
(1.0975 0.102155 0)
(1.09494 0.0965327 0)
(1.09336 0.0932241 0)
(1.00008 0.00645762 0)
(1.00062 0.0196334 0)
(1.00188 0.0329676 0)
(1.0038 0.046361 0)
(1.00635 0.0597162 0)
(1.00949 0.072932 0)
(1.01318 0.0859047 0)
(1.01736 0.0985309 0)
(1.02196 0.11071 0)
(1.02691 0.122345 0)
(1.03212 0.133348 0)
(1.03752 0.143635 0)
(1.04303 0.153135 0)
(1.04857 0.161783 0)
(1.05406 0.169527 0)
(1.05943 0.176322 0)
(1.06462 0.182135 0)
(1.06956 0.186942 0)
(1.07423 0.190726 0)
(1.07856 0.193479 0)
(1.08252 0.195203 0)
(1.0861 0.195902 0)
(1.08927 0.195592 0)
(1.09202 0.194289 0)
(1.09435 0.192021 0)
(1.09625 0.188817 0)
(1.09773 0.184715 0)
(1.09881 0.17976 0)
(1.09948 0.174006 0)
(1.09978 0.167517 0)
(1.09972 0.160371 0)
(1.09931 0.152665 0)
(1.09858 0.14452 0)
(1.09753 0.136088 0)
(1.0962 0.127565 0)
(1.09461 0.119203 0)
(1.09278 0.111332 0)
(1.09067 0.10438 0)
(1.08827 0.0989127 0)
(1.08686 0.0956972 0)
(1.00007 0.00617124 0)
(1.00055 0.0187456 0)
(1.00167 0.03147 0)
(1.00337 0.0442629 0)
(1.00564 0.057042 0)
(1.00842 0.0697194 0)
(1.0117 0.0822025 0)
(1.01541 0.0943974 0)
(1.0195 0.10621 0)
(1.02391 0.11755 0)
(1.02856 0.128331 0)
(1.03339 0.138471 0)
(1.03833 0.147898 0)
(1.04331 0.156545 0)
(1.04826 0.164356 0)
(1.05313 0.171282 0)
(1.05785 0.177284 0)
(1.06237 0.182329 0)
(1.06666 0.186396 0)
(1.07066 0.18947 0)
(1.07435 0.191543 0)
(1.0777 0.192615 0)
(1.0807 0.192692 0)
(1.08332 0.191788 0)
(1.08557 0.189921 0)
(1.08744 0.187118 0)
(1.08892 0.183411 0)
(1.09003 0.178843 0)
(1.09078 0.173463 0)
(1.09117 0.167335 0)
(1.09122 0.160535 0)
(1.09094 0.153158 0)
(1.09034 0.145326 0)
(1.08945 0.137189 0)
(1.08828 0.128944 0)
(1.08684 0.12084 0)
(1.08516 0.113202 0)
(1.0832 0.106453 0)
(1.08096 0.101146 0)
(1.0797 0.0980266 0)
(1.00006 0.00591739 0)
(1.00049 0.0179562 0)
(1.00149 0.0301376 0)
(1.00301 0.042397 0)
(1.00503 0.0546657 0)
(1.00751 0.0668665 0)
(1.01042 0.0789163 0)
(1.01371 0.0907283 0)
(1.01734 0.102215 0)
(1.02124 0.113288 0)
(1.02537 0.123866 0)
(1.02965 0.133867 0)
(1.03405 0.143217 0)
(1.03848 0.151851 0)
(1.04291 0.159708 0)
(1.04727 0.166735 0)
(1.05151 0.172888 0)
(1.05559 0.178132 0)
(1.05947 0.182438 0)
(1.06311 0.185785 0)
(1.06649 0.188159 0)
(1.06957 0.189555 0)
(1.07235 0.189972 0)
(1.07479 0.189419 0)
(1.07691 0.18791 0)
(1.07868 0.185467 0)
(1.08011 0.182119 0)
(1.0812 0.177904 0)
(1.08196 0.172869 0)
(1.0824 0.167077 0)
(1.08252 0.160601 0)
(1.08232 0.153537 0)
(1.08184 0.146004 0)
(1.08106 0.138154 0)
(1.08002 0.13018 0)
(1.07871 0.122331 0)
(1.07717 0.114928 0)
(1.07535 0.108383 0)
(1.07325 0.103238 0)
(1.07214 0.100216 0)
(1.00005 0.00568973 0)
(1.00044 0.0172471 0)
(1.00135 0.0289424 0)
(1.00272 0.040728 0)
(1.00453 0.0525464 0)
(1.00674 0.0643295 0)
(1.00933 0.0760008 0)
(1.01224 0.0874789 0)
(1.01545 0.09868 0)
(1.01889 0.10952 0)
(1.02253 0.119917 0)
(1.02631 0.129792 0)
(1.03019 0.13907 0)
(1.0341 0.147685 0)
(1.03801 0.155573 0)
(1.04187 0.16268 0)
(1.04564 0.168958 0)
(1.04927 0.174367 0)
(1.05274 0.178874 0)
(1.056 0.182452 0)
(1.05903 0.185085 0)
(1.06182 0.18676 0)
(1.06433 0.187473 0)
(1.06657 0.187229 0)
(1.06851 0.186036 0)
(1.07015 0.183913 0)
(1.07149 0.180885 0)
(1.07252 0.176989 0)
(1.07326 0.172269 0)
(1.0737 0.166784 0)
(1.07384 0.160609 0)
(1.07371 0.153837 0)
(1.0733 0.146587 0)
(1.07262 0.139009 0)
(1.07167 0.131297 0)
(1.07049 0.123696 0)
(1.06907 0.116521 0)
(1.06738 0.110179 0)
(1.06542 0.105195 0)
(1.06446 0.10227 0)
(1.00005 0.0054813 0)
(1.00041 0.0165991 0)
(1.00125 0.0278562 0)
(1.0025 0.039221 0)
(1.00414 0.0506452 0)
(1.00612 0.0620666 0)
(1.00843 0.0734129 0)
(1.01101 0.084606 0)
(1.01384 0.095564 0)
(1.01687 0.106205 0)
(1.02006 0.116447 0)
(1.02336 0.126214 0)
(1.02675 0.135429 0)
(1.03018 0.144025 0)
(1.0336 0.151937 0)
(1.03698 0.159109 0)
(1.04028 0.165489 0)
(1.04347 0.171036 0)
(1.04652 0.175711 0)
(1.0494 0.179487 0)
(1.05208 0.182339 0)
(1.05455 0.184254 0)
(1.05679 0.185224 0)
(1.05879 0.185247 0)
(1.06053 0.18433 0)
(1.06201 0.182489 0)
(1.06323 0.179746 0)
(1.06417 0.176133 0)
(1.06485 0.171695 0)
(1.06527 0.166489 0)
(1.06542 0.160588 0)